
     Program PWSCF v.4.2        starts on 23Sep2010 at  6: 9:29 

     This program is part of the open-source Quantum ESPRESSO suite
     for quantum simulation of materials; please acknowledge
         "P. Giannozzi et al., J. Phys.:Condens. Matter 21 395502 (2009);
          URL http://www.quantum-espresso.org", 
     in publications or presentations arising from this work. More details at
     http://www.quantum-espresso.org/wiki/index.php/Citing_Quantum-ESPRESSO

     Parallel version (MPI), running on     6 processors
     R & G space division:  proc/pool =    6

     Current dimensions of program PWSCF are:
     Max number of different atomic species (ntypx) = 10
     Max number of k-points (npk) =  40000
     Max angular momentum in pseudopotentials (lmaxx) =  3
     Waiting for input...

     Atomic positions and unit cell read from directory:
     ./SCRATCH/H2graph.save/
 

     Subspace diagonalization in iterative solution of the eigenvalue problem:
     a serial algorithm will be used


     Planes per process (thick) : nr3 = 120 npp =   20 ncplane =  3600
 
     Proc/  planes cols     G    planes cols    G      columns  G
     Pool       (dense grid)       (smooth grid)      (wavefct grid)
        1    20    347    25649   20    347    25649     99     3941
        2    20    346    25640   20    346    25640     99     3941
        3    20    346    25640   20    346    25640     99     3943
        4    20    346    25640   20    346    25640     99     3945
        5    20    346    25644   20    346    25644     99     3941
        6    20    346    25642   20    346    25642    100     3946
     tot    120   2077   153855  120   2077   153855    595    23657
 


     bravais-lattice index     =            4
     lattice parameter (a_0)   =      13.7470  a.u.
     unit-cell volume          =    4499.7408 (a.u.)^3
     number of atoms/cell      =           20
     number of atomic types    =            2
     number of electrons       =        74.00
     number of Kohn-Sham states=          120
     kinetic-energy cutoff     =      40.0000  Ry
     charge density cutoff     =     160.0000  Ry
     Exchange-correlation      =  SLA  LYP  B88  BLYP (1313)
     EXX-fraction              =        0.00

     celldm(1)=  13.747032  celldm(2)=   0.000000  celldm(3)=   2.000000
     celldm(4)=   0.000000  celldm(5)=   0.000000  celldm(6)=   0.000000

     crystal axes: (cart. coord. in units of a_0)
               a(1) = (  1.000000  0.000000  0.000000 )  
               a(2) = ( -0.500000  0.866025  0.000000 )  
               a(3) = (  0.000000  0.000000  2.000000 )  

     reciprocal axes: (cart. coord. in units 2 pi/a_0)
               b(1) = (  1.000000  0.577350  0.000000 )  
               b(2) = (  0.000000  1.154701  0.000000 )  
               b(3) = (  0.000000  0.000000  0.500000 )  


     PseudoPot. # 1 for C  read from file C.blyp-mt.UPF
     Pseudo is Norm-conserving, Zval =  4.0
     Generated by new atomic code, or converted to UPF format
     Using radial grid of  279 points,  1 beta functions with: 
                l(1) =   0

     PseudoPot. # 2 for H  read from file H.blyp-vbc.UPF
     Pseudo is Norm-conserving, Zval =  1.0
     Generated by new atomic code, or converted to UPF format
     Using radial grid of  243 points,  0 beta functions with: 

     atomic species   valence    mass     pseudopotential
        C              4.00    12.01100     C ( 1.00)
        H              1.00     1.00000     H ( 1.00)

     No symmetry found

   Cartesian axes

     site n.     atom                  positions (a_0 units)
         1           C   tau(  1) = (  -0.1666668  -0.2886751   0.0000000  )
         2           C   tau(  2) = (   0.0000000  -0.1924501   0.0000000  )
         3           C   tau(  3) = (  -0.3333335   0.0000000   0.0000000  )
         4           C   tau(  4) = (  -0.1666668   0.0962250   0.0000000  )
         5           C   tau(  5) = (  -0.5000003   0.2886751   0.0000000  )
         6           C   tau(  6) = (  -0.3333335   0.3849002   0.0000000  )
         7           C   tau(  7) = (   0.1666668  -0.2886751   0.0000000  )
         8           C   tau(  8) = (   0.3333335  -0.1924501   0.0000000  )
         9           C   tau(  9) = (   0.0000000   0.0000000   0.0000000  )
        10           C   tau( 10) = (   0.1666667   0.0962250   0.0000000  )
        11           C   tau( 11) = (  -0.1666668   0.2886751   0.0000000  )
        12           C   tau( 12) = (   0.0000000   0.3849002   0.0000000  )
        13           C   tau( 13) = (   0.5000003  -0.2886751   0.0000000  )
        14           C   tau( 14) = (   0.6666670  -0.1924501   0.0000000  )
        15           C   tau( 15) = (   0.3333335   0.0000000   0.0000000  )
        16           C   tau( 16) = (   0.5000003   0.0962250   0.0000000  )
        17           C   tau( 17) = (   0.1666668   0.2886751   0.0000000  )
        18           C   tau( 18) = (   0.3333335   0.3849002   0.0000000  )
        19           H   tau( 19) = (   0.0000000   0.0000000   0.1649572  )
        20           H   tau( 20) = (   0.0000000   0.0000000   0.2886750  )

     number of k points=    16  gaussian broad. (Ry)=  0.0100     ngauss =   0
                       cart. coord. in units 2pi/a_0
        k(    1) = (   0.0000000   0.0000000   0.0000000), wk =   0.1250000
        k(    2) = (   0.0000000   0.2886751   0.0000000), wk =   0.1250000
        k(    3) = (   0.0000000  -0.5773503   0.0000000), wk =   0.1250000
        k(    4) = (   0.0000000  -0.2886751   0.0000000), wk =   0.1250000
        k(    5) = (   0.2500000   0.1443376   0.0000000), wk =   0.1250000
        k(    6) = (   0.2500000   0.4330127   0.0000000), wk =   0.1250000
        k(    7) = (   0.2500000  -0.4330127   0.0000000), wk =   0.1250000
        k(    8) = (   0.2500000  -0.1443376   0.0000000), wk =   0.1250000
        k(    9) = (  -0.5000000  -0.2886751   0.0000000), wk =   0.1250000
        k(   10) = (  -0.5000000   0.0000000   0.0000000), wk =   0.1250000
        k(   11) = (  -0.5000000  -0.8660254   0.0000000), wk =   0.1250000
        k(   12) = (  -0.5000000  -0.5773503   0.0000000), wk =   0.1250000
        k(   13) = (  -0.2500000  -0.1443376   0.0000000), wk =   0.1250000
        k(   14) = (  -0.2500000   0.1443376   0.0000000), wk =   0.1250000
        k(   15) = (  -0.2500000  -0.7216878   0.0000000), wk =   0.1250000
        k(   16) = (  -0.2500000  -0.4330127   0.0000000), wk =   0.1250000

     G cutoff =  765.9107  ( 153855 G-vectors)     FFT grid: ( 60, 60,120)

     Largest allocated arrays     est. size (Mb)     dimensions
        Kohn-Sham Wavefunctions         5.95 Mb     (   3247, 120)
        NL pseudopotentials             0.89 Mb     (   3247,  18)
        Each V/rho on FFT grid          1.10 Mb     (  72000)
        Each G-vector array             0.20 Mb     (  25649)
        G-vector shells                 0.01 Mb     (   1379)
     Largest temporary arrays     est. size (Mb)     dimensions
        Auxiliary wavefunctions        23.78 Mb     (   3247, 480)
        Each subspace H/S matrix        3.52 Mb     (    480, 480)
        Each <psi_i|beta_j> matrix      0.03 Mb     (     18, 120)

     The potential is recalculated from file :
     ./SCRATCH/H2graph.save/charge-density.dat

     Starting wfc are   74 atomic +   46 random wfc

     total cpu time spent up to now is      0.36 secs

     per-process dynamical memory:    32.2 Mb

     Band Structure Calculation
     Davidson diagonalization with overlap

     ethr =  1.35E-11,  avg # of iterations = 33.2

     total cpu time spent up to now is    724.88 secs

     End of band structure calculation

          k = 0.0000 0.0000 0.0000     band energies (ev):

   -21.5794 -19.3508 -18.8144 -18.8143 -18.7743 -18.7742 -18.7657 -14.6337
   -14.3284 -14.3284 -14.2857 -12.3401 -12.3401 -11.6625 -11.3618 -11.3618
   -11.2793 -11.2793 -11.2708 -10.0708  -8.1816  -7.5161  -7.5161  -7.4152
    -7.3974  -7.3973  -7.3972  -6.2064  -6.2064  -6.1549  -6.1549  -6.1498
    -4.5476  -4.5476  -3.5410  -1.3639  -1.3639  -1.3571  -1.2975   1.9807
     2.4883   3.1710   3.3591   3.6938   3.6939   3.8230   3.8230   3.8477
     5.0993   5.0993   5.1895   5.3983   5.3983   5.4003   5.6314   5.8898
     6.2401   6.2401   6.4239   6.5357   6.5357   6.5774   6.7111   6.7111
     6.7612   6.7960   6.7960   6.8537   6.9658   6.9658   6.9994   7.0097
     7.0097   7.3218   7.3219   7.8165   8.7216   8.7529   8.7529   8.9025
     8.9025   8.9090   9.1559   9.1559   9.4816   9.6787   9.6787   9.8462
     9.8462   9.8725  10.2610  10.5013  10.7849  11.5594  11.5594  11.7390
    11.8007  12.1170  12.1170  12.2172  12.3458  12.7350  12.7350  12.9254
    12.9254  12.9587  13.2728  13.5854  13.5854  13.8685  14.0914  14.0914
    14.1701  14.2037  14.2037  14.2260  14.2821  14.2821  14.2845  14.3552

          k = 0.0000 0.2887 0.0000     band energies (ev):

   -21.4172 -20.0852 -19.4519 -19.2882 -18.1590 -17.9844 -17.4098 -15.7410
   -15.5653 -13.8112 -13.6866 -13.5012 -12.4210 -12.3473 -11.4572 -11.3864
   -10.4488 -10.1777  -9.8917  -9.0695  -8.3801  -8.2292  -8.2086  -7.9279
    -7.5992  -7.5758  -7.1999  -6.7438  -6.6725  -5.9059  -5.2907  -5.2570
    -4.9357  -4.8399  -3.6598  -2.7481  -2.3364  -0.1951   0.0100   1.3368
     2.1577   2.2751   2.5144   3.0938   3.4653   3.9455   4.3665   4.5550
     4.7806   4.8380   5.0031   5.3119   5.5299   5.6541   5.6723   6.1635
     6.2043   6.2548   6.2949   6.4305   6.4863   6.8882   7.0138   7.1943
     7.2429   7.3633   7.3860   7.4919   7.4919   7.5897   7.6428   7.7311
     8.0375   8.0989   8.1158   8.1408   8.1709   8.3979   8.6131   9.0678
     9.0701   9.1060   9.4192   9.4399   9.6281   9.7948   9.9061   9.9888
     9.9918  10.3411  10.7128  10.9000  10.9284  11.0926  11.2201  11.3402
    11.3455  11.6814  11.7279  11.8127  11.8564  11.9477  11.9797  12.0960
    12.1510  12.1914  12.3797  12.4479  12.6166  12.7465  12.8108  12.9660
    13.2337  13.3971  13.4194  13.5154  13.5567  13.6408  13.7501  13.8634

          k = 0.0000-0.5774 0.0000     band energies (ev):

   -21.0408 -20.7685 -19.6246 -19.4536 -17.2315 -16.9070 -16.8992 -16.8753
   -16.0881 -15.0833 -13.3359 -13.1939 -13.1076 -13.0883 -10.3019  -9.8138
    -9.7535  -9.7001  -9.6309  -9.4143  -9.3007  -8.4849  -8.1093  -8.0875
    -8.0365  -7.5766  -6.9543  -6.9298  -6.8962  -5.8059  -5.7349  -5.5480
    -4.1453  -4.1436  -4.0987  -3.8483  -2.6350   0.1963   0.8432   1.2095
     1.2742   1.3242   2.6158   2.9669   3.6828   3.6835   4.1555   4.2056
     4.3399   4.8412   4.9580   5.3483   5.4003   5.5986   6.0233   6.0353
     6.1171   6.2655   6.4873   6.9701   6.9909   7.3401   7.4100   7.7029
     7.7682   7.7895   7.9900   8.0653   8.0743   8.5498   8.5676   8.5764
     8.6938   8.7147   8.8550   8.9761   9.0097   9.0684   9.1300   9.1722
     9.1750   9.1908   9.4945   9.7139   9.7618   9.7709   9.7888   9.8514
     9.9320   9.9892  10.0369  10.3265  10.4441  10.6827  10.7742  10.8169
    10.9220  10.9657  10.9921  11.0714  11.1180  11.5469  11.5726  11.6451
    11.7456  11.8838  11.9862  12.1937  12.2891  12.4006  12.4628  12.4922
    12.6339  12.7543  12.7996  12.8045  12.8173  12.8398  13.0016  13.0430

          k = 0.0000-0.2887 0.0000     band energies (ev):

   -21.4172 -20.0852 -19.4519 -19.2882 -18.1590 -17.9844 -17.4098 -15.7410
   -15.5653 -13.8112 -13.6866 -13.5012 -12.4210 -12.3473 -11.4572 -11.3864
   -10.4488 -10.1777  -9.8917  -9.0695  -8.3801  -8.2292  -8.2086  -7.9279
    -7.5992  -7.5758  -7.1999  -6.7438  -6.6725  -5.9059  -5.2907  -5.2570
    -4.9357  -4.8399  -3.6598  -2.7481  -2.3364  -0.1951   0.0100   1.3368
     2.1577   2.2751   2.5144   3.0938   3.4653   3.9455   4.3665   4.5550
     4.7806   4.8380   5.0031   5.3119   5.5299   5.6541   5.6723   6.1635
     6.2043   6.2548   6.2949   6.4305   6.4863   6.8882   7.0138   7.1943
     7.2429   7.3633   7.3860   7.4919   7.4919   7.5897   7.6428   7.7311
     8.0375   8.0989   8.1158   8.1408   8.1709   8.3979   8.6131   9.0678
     9.0701   9.1060   9.4192   9.4399   9.6281   9.7948   9.9061   9.9888
     9.9918  10.3411  10.7128  10.9000  10.9284  11.0926  11.2201  11.3402
    11.3455  11.6814  11.7279  11.8127  11.8564  11.9477  11.9797  12.0960
    12.1510  12.1914  12.3797  12.4479  12.6166  12.7465  12.8108  12.9660
    13.2337  13.3971  13.4194  13.5154  13.5567  13.6408  13.7501  13.8634

          k = 0.2500 0.1443 0.0000     band energies (ev):

   -21.4172 -20.0852 -19.4519 -19.2882 -18.1590 -17.9844 -17.4098 -15.7410
   -15.5653 -13.8112 -13.6866 -13.5012 -12.4210 -12.3473 -11.4572 -11.3864
   -10.4488 -10.1777  -9.8917  -9.0695  -8.3801  -8.2292  -8.2086  -7.9279
    -7.5992  -7.5758  -7.1999  -6.7438  -6.6725  -5.9059  -5.2907  -5.2570
    -4.9358  -4.8399  -3.6598  -2.7481  -2.3364  -0.1951   0.0100   1.3368
     2.1577   2.2751   2.5144   3.0938   3.4653   3.9455   4.3664   4.5550
     4.7806   4.8380   5.0031   5.3119   5.5299   5.6541   5.6723   6.1635
     6.2043   6.2548   6.2949   6.4305   6.4863   6.8882   7.0138   7.1943
     7.2429   7.3632   7.3860   7.4919   7.4919   7.5897   7.6428   7.7311
     8.0375   8.0989   8.1158   8.1408   8.1709   8.3979   8.6131   9.0678
     9.0701   9.1060   9.4192   9.4399   9.6281   9.7948   9.9061   9.9888
     9.9918  10.3411  10.7128  10.9000  10.9284  11.0926  11.2200  11.3402
    11.3455  11.6814  11.7279  11.8127  11.8564  11.9477  11.9797  12.0960
    12.1510  12.1914  12.3797  12.4479  12.6167  12.7465  12.8108  12.9660
    13.2337  13.3971  13.4194  13.5154  13.5567  13.6408  13.7501  13.8634

          k = 0.2500 0.4330 0.0000     band energies (ev):

   -21.1091 -20.4656 -20.2664 -18.4928 -18.3125 -17.1415 -16.6196 -16.4342
   -15.6733 -14.6772 -14.4249 -14.3258 -12.2888 -11.3021 -11.1816 -10.6830
   -10.0977  -9.8586  -9.1819  -9.1067  -8.5984  -8.5649  -8.3839  -8.0612
    -8.0298  -7.8876  -6.6845  -6.6723  -6.5215  -6.2884  -5.6398  -5.6088
    -4.8572  -4.1125  -3.9026  -3.3885  -2.5539   0.0148   0.4491   0.6471
     1.4897   2.5572   2.9297   3.2780   3.3205   3.3617   3.7779   3.9604
     4.3664   4.4643   4.8599   5.0158   5.8602   5.8991   6.1465   6.3778
     6.7505   6.8115   6.8835   6.9395   7.1981   7.2180   7.2335   7.3134
     7.5224   7.6362   7.6674   7.6721   7.6959   7.8999   7.9561   8.1102
     8.4123   8.7060   8.7629   8.9717   9.0838   9.1230   9.2422   9.3353
     9.3781   9.4662   9.5275   9.6597   9.8059  10.0189  10.1093  10.2315
    10.4112  10.4335  10.4728  10.4977  10.5542  10.6146  10.6279  10.8040
    10.8675  10.9884  11.0288  11.2846  11.3017  11.4962  11.6614  11.7703
    11.8855  11.9083  12.1018  12.2034  12.2191  12.2573  12.2805  12.3184
    12.3530  12.4708  12.5509  12.7192  12.7798  12.8897  12.8990  13.0417

          k = 0.2500-0.4330 0.0000     band energies (ev):

   -21.1092 -20.4656 -20.2665 -18.4928 -18.3125 -17.1415 -16.6196 -16.4342
   -15.6733 -14.6772 -14.4249 -14.3259 -12.2889 -11.3021 -11.1816 -10.6829
   -10.0977  -9.8586  -9.1818  -9.1067  -8.5984  -8.5649  -8.3839  -8.0612
    -8.0298  -7.8876  -6.6845  -6.6723  -6.5215  -6.2885  -5.6398  -5.6088
    -4.8572  -4.1126  -3.9026  -3.3885  -2.5539   0.0148   0.4491   0.6471
     1.4897   2.5572   2.9297   3.2780   3.3205   3.3617   3.7779   3.9604
     4.3664   4.4643   4.8599   5.0158   5.8602   5.8991   6.1465   6.3778
     6.7505   6.8115   6.8835   6.9395   7.1981   7.2180   7.2335   7.3134
     7.5224   7.6362   7.6674   7.6721   7.6960   7.8999   7.9561   8.1102
     8.4123   8.7060   8.7629   8.9717   9.0838   9.1230   9.2422   9.3352
     9.3781   9.4662   9.5275   9.6597   9.8059  10.0189  10.1093  10.2315
    10.4112  10.4335  10.4729  10.4977  10.5542  10.6146  10.6279  10.8040
    10.8675  10.9884  11.0288  11.2847  11.3017  11.4962  11.6614  11.7703
    11.8855  11.9083  12.1018  12.2034  12.2191  12.2573  12.2805  12.3184
    12.3530  12.4708  12.5509  12.7192  12.7798  12.8897  12.8990  13.0417

          k = 0.2500-0.1443 0.0000     band energies (ev):

   -21.4172 -20.0852 -19.4519 -19.2882 -18.1590 -17.9844 -17.4098 -15.7410
   -15.5653 -13.8112 -13.6866 -13.5012 -12.4210 -12.3473 -11.4572 -11.3864
   -10.4488 -10.1777  -9.8917  -9.0695  -8.3801  -8.2292  -8.2086  -7.9279
    -7.5992  -7.5758  -7.1999  -6.7438  -6.6725  -5.9059  -5.2907  -5.2570
    -4.9357  -4.8399  -3.6598  -2.7481  -2.3364  -0.1951   0.0100   1.3368
     2.1577   2.2751   2.5144   3.0938   3.4653   3.9455   4.3665   4.5550
     4.7806   4.8380   5.0031   5.3119   5.5299   5.6541   5.6723   6.1635
     6.2043   6.2548   6.2949   6.4305   6.4863   6.8882   7.0138   7.1943
     7.2429   7.3633   7.3860   7.4919   7.4919   7.5897   7.6428   7.7311
     8.0375   8.0989   8.1158   8.1408   8.1709   8.3979   8.6131   9.0678
     9.0701   9.1060   9.4192   9.4399   9.6281   9.7948   9.9061   9.9888
     9.9918  10.3411  10.7128  10.9000  10.9284  11.0926  11.2200  11.3402
    11.3455  11.6814  11.7279  11.8127  11.8564  11.9477  11.9797  12.0960
    12.1510  12.1914  12.3797  12.4479  12.6166  12.7465  12.8108  12.9660
    13.2337  13.3971  13.4194  13.5154  13.5567  13.6408  13.7501  13.8634

          k =-0.5000-0.2887 0.0000     band energies (ev):

   -21.0408 -20.7686 -19.6246 -19.4536 -17.2315 -16.9070 -16.8992 -16.8753
   -16.0881 -15.0833 -13.3359 -13.1939 -13.1076 -13.0883 -10.3019  -9.8138
    -9.7535  -9.7000  -9.6309  -9.4143  -9.3007  -8.4849  -8.1093  -8.0875
    -8.0365  -7.5766  -6.9543  -6.9298  -6.8963  -5.8059  -5.7350  -5.5481
    -4.1453  -4.1436  -4.0987  -3.8483  -2.6350   0.1963   0.8431   1.2095
     1.2742   1.3242   2.6158   2.9670   3.6828   3.6835   4.1555   4.2056
     4.3399   4.8412   4.9580   5.3483   5.4003   5.5986   6.0233   6.0353
     6.1171   6.2655   6.4873   6.9701   6.9909   7.3401   7.4100   7.7029
     7.7682   7.7895   7.9900   8.0653   8.0743   8.5498   8.5676   8.5764
     8.6938   8.7147   8.8550   8.9761   9.0097   9.0684   9.1300   9.1722
     9.1750   9.1908   9.4945   9.7139   9.7618   9.7709   9.7888   9.8514
     9.9320   9.9892  10.0369  10.3265  10.4441  10.6827  10.7742  10.8169
    10.9220  10.9657  10.9921  11.0714  11.1180  11.5469  11.5726  11.6451
    11.7456  11.8838  11.9862  12.1937  12.2891  12.4006  12.4628  12.4922
    12.6339  12.7543  12.7996  12.8045  12.8173  12.8398  13.0016  13.0430

          k =-0.5000 0.0000 0.0000     band energies (ev):

   -21.1091 -20.4656 -20.2664 -18.4928 -18.3125 -17.1415 -16.6196 -16.4342
   -15.6733 -14.6772 -14.4249 -14.3258 -12.2889 -11.3021 -11.1816 -10.6830
   -10.0977  -9.8586  -9.1819  -9.1067  -8.5984  -8.5649  -8.3839  -8.0612
    -8.0298  -7.8876  -6.6845  -6.6723  -6.5215  -6.2885  -5.6398  -5.6088
    -4.8572  -4.1125  -3.9026  -3.3885  -2.5539   0.0148   0.4491   0.6471
     1.4897   2.5572   2.9297   3.2780   3.3205   3.3617   3.7779   3.9604
     4.3664   4.4643   4.8599   5.0158   5.8602   5.8991   6.1465   6.3778
     6.7505   6.8115   6.8835   6.9395   7.1981   7.2180   7.2335   7.3134
     7.5224   7.6362   7.6674   7.6721   7.6960   7.8999   7.9561   8.1102
     8.4123   8.7060   8.7629   8.9717   9.0838   9.1230   9.2422   9.3352
     9.3781   9.4662   9.5275   9.6597   9.8059  10.0189  10.1093  10.2315
    10.4112  10.4335  10.4728  10.4977  10.5542  10.6146  10.6279  10.8040
    10.8675  10.9884  11.0288  11.2846  11.3017  11.4962  11.6614  11.7703
    11.8855  11.9083  12.1018  12.2034  12.2191  12.2573  12.2805  12.3184
    12.3530  12.4708  12.5509  12.7192  12.7798  12.8897  12.8990  13.0417

          k =-0.5000-0.8660 0.0000     band energies (ev):

   -21.0408 -20.7685 -19.6246 -19.4536 -17.2315 -16.9070 -16.8992 -16.8753
   -16.0881 -15.0833 -13.3359 -13.1939 -13.1076 -13.0883 -10.3019  -9.8138
    -9.7535  -9.7001  -9.6309  -9.4143  -9.3007  -8.4849  -8.1093  -8.0875
    -8.0365  -7.5766  -6.9544  -6.9298  -6.8963  -5.8059  -5.7349  -5.5480
    -4.1453  -4.1436  -4.0987  -3.8483  -2.6350   0.1963   0.8431   1.2095
     1.2742   1.3242   2.6158   2.9669   3.6828   3.6835   4.1555   4.2056
     4.3399   4.8412   4.9580   5.3483   5.4003   5.5986   6.0233   6.0353
     6.1171   6.2655   6.4873   6.9701   6.9909   7.3401   7.4100   7.7029
     7.7682   7.7895   7.9900   8.0653   8.0743   8.5498   8.5676   8.5764
     8.6938   8.7147   8.8550   8.9761   9.0097   9.0684   9.1300   9.1722
     9.1750   9.1908   9.4945   9.7139   9.7618   9.7709   9.7888   9.8514
     9.9320   9.9892  10.0369  10.3265  10.4441  10.6827  10.7742  10.8169
    10.9220  10.9657  10.9921  11.0714  11.1180  11.5469  11.5726  11.6451
    11.7456  11.8838  11.9862  12.1937  12.2891  12.4006  12.4628  12.4922
    12.6339  12.7543  12.7996  12.8045  12.8173  12.8398  13.0016  13.0430

          k =-0.5000-0.5774 0.0000     band energies (ev):

   -21.1091 -20.4656 -20.2664 -18.4928 -18.3125 -17.1415 -16.6196 -16.4342
   -15.6733 -14.6772 -14.4249 -14.3258 -12.2889 -11.3021 -11.1816 -10.6830
   -10.0977  -9.8586  -9.1819  -9.1067  -8.5984  -8.5649  -8.3839  -8.0612
    -8.0298  -7.8876  -6.6845  -6.6723  -6.5215  -6.2885  -5.6398  -5.6088
    -4.8572  -4.1125  -3.9026  -3.3885  -2.5539   0.0148   0.4491   0.6471
     1.4897   2.5572   2.9297   3.2780   3.3205   3.3617   3.7779   3.9604
     4.3664   4.4643   4.8599   5.0158   5.8602   5.8991   6.1465   6.3778
     6.7505   6.8115   6.8835   6.9395   7.1981   7.2180   7.2335   7.3134
     7.5224   7.6362   7.6674   7.6721   7.6960   7.8999   7.9561   8.1102
     8.4123   8.7060   8.7629   8.9717   9.0838   9.1230   9.2422   9.3352
     9.3781   9.4662   9.5275   9.6597   9.8059  10.0189  10.1093  10.2315
    10.4112  10.4335  10.4728  10.4977  10.5542  10.6146  10.6279  10.8040
    10.8675  10.9884  11.0288  11.2846  11.3017  11.4962  11.6614  11.7703
    11.8855  11.9083  12.1018  12.2034  12.2191  12.2573  12.2805  12.3184
    12.3530  12.4708  12.5509  12.7192  12.7798  12.8897  12.8990  13.0417

          k =-0.2500-0.1443 0.0000     band energies (ev):

   -21.4172 -20.0852 -19.4519 -19.2882 -18.1590 -17.9844 -17.4098 -15.7410
   -15.5653 -13.8112 -13.6866 -13.5012 -12.4210 -12.3473 -11.4572 -11.3864
   -10.4488 -10.1777  -9.8917  -9.0695  -8.3801  -8.2292  -8.2086  -7.9279
    -7.5992  -7.5758  -7.1999  -6.7438  -6.6725  -5.9059  -5.2907  -5.2570
    -4.9358  -4.8399  -3.6598  -2.7481  -2.3364  -0.1951   0.0100   1.3368
     2.1577   2.2751   2.5144   3.0938   3.4653   3.9455   4.3664   4.5550
     4.7806   4.8380   5.0031   5.3119   5.5299   5.6541   5.6723   6.1635
     6.2043   6.2548   6.2949   6.4305   6.4863   6.8882   7.0138   7.1943
     7.2429   7.3632   7.3860   7.4919   7.4919   7.5897   7.6428   7.7311
     8.0375   8.0989   8.1158   8.1408   8.1709   8.3979   8.6131   9.0678
     9.0701   9.1060   9.4192   9.4399   9.6281   9.7948   9.9061   9.9888
     9.9918  10.3411  10.7128  10.9000  10.9284  11.0926  11.2200  11.3402
    11.3455  11.6814  11.7279  11.8127  11.8564  11.9477  11.9797  12.0960
    12.1510  12.1914  12.3797  12.4479  12.6167  12.7465  12.8108  12.9660
    13.2337  13.3971  13.4194  13.5154  13.5567  13.6408  13.7501  13.8634

          k =-0.2500 0.1443 0.0000     band energies (ev):

   -21.4172 -20.0852 -19.4519 -19.2882 -18.1590 -17.9844 -17.4098 -15.7410
   -15.5653 -13.8112 -13.6866 -13.5012 -12.4210 -12.3473 -11.4572 -11.3864
   -10.4488 -10.1777  -9.8917  -9.0695  -8.3801  -8.2292  -8.2086  -7.9279
    -7.5992  -7.5758  -7.1999  -6.7438  -6.6725  -5.9059  -5.2907  -5.2570
    -4.9357  -4.8399  -3.6598  -2.7481  -2.3364  -0.1951   0.0100   1.3368
     2.1577   2.2751   2.5144   3.0938   3.4653   3.9455   4.3665   4.5550
     4.7806   4.8380   5.0031   5.3119   5.5299   5.6541   5.6723   6.1635
     6.2043   6.2548   6.2949   6.4305   6.4863   6.8882   7.0138   7.1943
     7.2429   7.3633   7.3860   7.4919   7.4919   7.5897   7.6428   7.7311
     8.0375   8.0989   8.1158   8.1408   8.1709   8.3979   8.6131   9.0678
     9.0701   9.1060   9.4192   9.4399   9.6281   9.7948   9.9061   9.9888
     9.9918  10.3411  10.7128  10.9000  10.9284  11.0926  11.2200  11.3402
    11.3455  11.6814  11.7279  11.8127  11.8564  11.9477  11.9797  12.0960
    12.1510  12.1914  12.3797  12.4479  12.6166  12.7465  12.8108  12.9660
    13.2337  13.3971  13.4194  13.5154  13.5567  13.6408  13.7501  13.8634

          k =-0.2500-0.7217 0.0000     band energies (ev):

   -21.1092 -20.4656 -20.2665 -18.4928 -18.3125 -17.1415 -16.6196 -16.4342
   -15.6733 -14.6772 -14.4249 -14.3259 -12.2889 -11.3021 -11.1816 -10.6829
   -10.0977  -9.8586  -9.1818  -9.1067  -8.5984  -8.5649  -8.3839  -8.0612
    -8.0298  -7.8876  -6.6845  -6.6723  -6.5215  -6.2885  -5.6398  -5.6088
    -4.8572  -4.1126  -3.9026  -3.3885  -2.5539   0.0148   0.4491   0.6471
     1.4897   2.5572   2.9297   3.2780   3.3205   3.3617   3.7779   3.9604
     4.3664   4.4643   4.8599   5.0158   5.8602   5.8991   6.1465   6.3778
     6.7505   6.8115   6.8835   6.9395   7.1981   7.2180   7.2335   7.3134
     7.5224   7.6362   7.6674   7.6721   7.6960   7.8999   7.9561   8.1102
     8.4123   8.7060   8.7629   8.9717   9.0838   9.1230   9.2422   9.3352
     9.3781   9.4662   9.5275   9.6597   9.8059  10.0189  10.1093  10.2315
    10.4112  10.4335  10.4729  10.4977  10.5542  10.6146  10.6279  10.8040
    10.8675  10.9884  11.0288  11.2847  11.3017  11.4962  11.6614  11.7703
    11.8855  11.9083  12.1018  12.2034  12.2191  12.2573  12.2805  12.3184
    12.3530  12.4708  12.5509  12.7192  12.7798  12.8897  12.8990  13.0417

          k =-0.2500-0.4330 0.0000     band energies (ev):

   -21.1091 -20.4656 -20.2664 -18.4928 -18.3125 -17.1415 -16.6196 -16.4342
   -15.6733 -14.6772 -14.4249 -14.3258 -12.2888 -11.3021 -11.1816 -10.6830
   -10.0977  -9.8586  -9.1819  -9.1067  -8.5984  -8.5649  -8.3839  -8.0612
    -8.0298  -7.8876  -6.6845  -6.6723  -6.5215  -6.2884  -5.6398  -5.6088
    -4.8572  -4.1125  -3.9026  -3.3885  -2.5539   0.0148   0.4491   0.6471
     1.4897   2.5572   2.9297   3.2780   3.3205   3.3617   3.7779   3.9604
     4.3664   4.4643   4.8599   5.0158   5.8602   5.8991   6.1465   6.3778
     6.7505   6.8115   6.8835   6.9395   7.1981   7.2180   7.2335   7.3134
     7.5224   7.6362   7.6674   7.6721   7.6959   7.8999   7.9561   8.1102
     8.4123   8.7060   8.7629   8.9717   9.0838   9.1230   9.2422   9.3353
     9.3781   9.4662   9.5275   9.6597   9.8059  10.0189  10.1093  10.2315
    10.4112  10.4335  10.4728  10.4977  10.5542  10.6146  10.6279  10.8040
    10.8675  10.9884  11.0288  11.2846  11.3017  11.4962  11.6614  11.7703
    11.8855  11.9083  12.1018  12.2034  12.2191  12.2573  12.2805  12.3184
    12.3530  12.4708  12.5509  12.7192  12.7798  12.8897  12.8990  13.0417

     the Fermi energy is    -1.3460 ev

     Writing output data file H2graph.save
 
     init_run     :      0.30s CPU      0.32s WALL (       1 calls)
     electrons    :    721.94s CPU    724.66s WALL (       1 calls)

     Called by init_run:
     wfcinit      :      0.00s CPU      0.00s WALL (       1 calls)
     potinit      :      0.14s CPU      0.15s WALL (       1 calls)

     Called by electrons:
     c_bands      :    721.80s CPU    724.52s WALL (       1 calls)
     v_of_rho     :      0.10s CPU      0.10s WALL (       1 calls)

     Called by c_bands:
     init_us_2    :      0.02s CPU      0.02s WALL (      16 calls)
     cegterg      :    698.54s CPU    700.86s WALL (      33 calls)

     Called by *egterg:
     h_psi        :    285.93s CPU    286.71s WALL (     580 calls)
     g_psi        :      2.69s CPU      2.74s WALL (     531 calls)
     cdiaghg      :    130.70s CPU    131.09s WALL (     547 calls)

     Called by h_psi:
     add_vuspsi   :      4.99s CPU      4.95s WALL (     580 calls)

     General routines
     calbec       :      7.35s CPU      7.44s WALL (     580 calls)
     cft3s        :    242.16s CPU    243.40s WALL (   65946 calls)
     davcio       :      0.00s CPU      0.34s WALL (      32 calls)
 
     Parallel routines
     fft_scatter  :     72.70s CPU     73.88s WALL (   65946 calls)
 
     PWSCF        : 12m 6.91s CPU time,    12m14.12s WALL time

 
   This run was terminated on:   6:21:43  23Sep2010            

=------------------------------------------------------------------------------=
   JOB DONE.
=------------------------------------------------------------------------------=
