
     Program PWSCF v.5.0.2 (svn rev. 9392) starts on 17Apr2014 at 20:10: 3 

     This program is part of the open-source Quantum ESPRESSO suite
     for quantum simulation of materials; please cite
         "P. Giannozzi et al., J. Phys.:Condens. Matter 21 395502 (2009);
          URL http://www.quantum-espresso.org", 
     in publications or presentations arising from this work. More details at
     http://www.quantum-espresso.org/quote.php

     Parallel version (MPI), running on     6 processors
     R & G space division:  proc/nbgrp/npool/nimage =       6

     Current dimensions of program PWSCF are:
     Max number of different atomic species (ntypx) = 10
     Max number of k-points (npk) =  40000
     Max angular momentum in pseudopotentials (lmaxx) =  3
     Reading input from /home/ferretti/want/tests/test15/nscf_bulk.in

     IMPORTANT: XC functional enforced from input :
     Exchange-correlation      = PBE ( 1 4 3 4 0)
     EXX-fraction              =        0.00
     Any further DFT definition will be discarded
     Please, verify this is what you really want


     Atomic positions and unit cell read from directory:
     ./SCRATCH/au_bulk.save/
 

     Subspace diagonalization in iterative solution of the eigenvalue problem:
     a serial algorithm will be used

     Found symmetry operation: I + (  0.0000  0.0000  0.2500)
     This is a supercell, fractional translations are disabled
 
     Parallelization info
     --------------------
     sticks:   dense  smooth     PW     G-vecs:    dense   smooth      PW
     Min         524     263     70                27928     9889    1362
     Max         525     264     71                27933     9902    1367
     Sum        3149    1581    421               167587    59381    8185
 


     bravais-lattice index     =            8
     lattice parameter (alat)  =      15.0000  a.u.
     unit-cell volume          =    4251.8855 (a.u.)^3
     number of atoms/cell      =            4
     number of atomic types    =            1
     number of electrons       =        44.00
     number of Kohn-Sham states=           40
     kinetic-energy cutoff     =      22.0000  Ry
     charge density cutoff     =     176.0000  Ry
     Exchange-correlation      = PBE ( 1 4 3 4 0)
     EXX-fraction              =        0.00

     celldm(1)=  15.000000  celldm(2)=   1.000000  celldm(3)=   1.259818
     celldm(4)=   0.000000  celldm(5)=   0.000000  celldm(6)=   0.000000

     crystal axes: (cart. coord. in units of alat)
               a(1) = (   1.000000   0.000000   0.000000 )  
               a(2) = (   0.000000   1.000000   0.000000 )  
               a(3) = (   0.000000   0.000000   1.259818 )  

     reciprocal axes: (cart. coord. in units 2 pi/alat)
               b(1) = (  1.000000  0.000000  0.000000 )  
               b(2) = (  0.000000  1.000000  0.000000 )  
               b(3) = (  0.000000  0.000000  0.793766 )  


     PseudoPot. # 1 for Au read from file:
     ../pseudo/Au.pw91-d-van.UPF
     MD5 check sum: dc02f59ef2ea6b62d9e9493d750aaae0
     Pseudo is Ultrasoft, Zval = 11.0
     Generated by new atomic code, or converted to UPF format
     Using radial grid of  939 points,  6 beta functions with: 
                l(1) =   0
                l(2) =   0
                l(3) =   1
                l(4) =   1
                l(5) =   2
                l(6) =   2
     Q(r) pseudized with  3 coefficients,  rinner =    1.600   1.800   1.600
                                                       1.600   1.800

     atomic species   valence    mass     pseudopotential
        Au            11.00   196.96650     Au( 1.00)

     No symmetry found



   Cartesian axes

     site n.     atom                  positions (alat units)
         1           Au  tau(   1) = (   0.0000000   0.0000000  -0.6299087  )
         2           Au  tau(   2) = (   0.0000000   0.0000000  -0.3149544  )
         3           Au  tau(   3) = (   0.0000000   0.0000000   0.0000000  )
         4           Au  tau(   4) = (   0.0000000   0.0000000   0.3149544  )

     number of k points=     8  gaussian smearing, width (Ry)=  0.0100
                       cart. coord. in units 2pi/alat
        k(    1) = (   0.0000000   0.0000000   0.0496103), wk =   0.2500000
        k(    2) = (   0.0000000   0.0000000   0.1488310), wk =   0.2500000
        k(    3) = (   0.0000000   0.0000000   0.2480517), wk =   0.2500000
        k(    4) = (   0.0000000   0.0000000   0.3472724), wk =   0.2500000
        k(    5) = (   0.0000000   0.0000000  -0.3472724), wk =   0.2500000
        k(    6) = (   0.0000000   0.0000000  -0.2480517), wk =   0.2500000
        k(    7) = (   0.0000000   0.0000000  -0.1488310), wk =   0.2500000
        k(    8) = (   0.0000000   0.0000000  -0.0496103), wk =   0.2500000

     Dense  grid:   167587 G-vectors     FFT dimensions: (  64,  64,  80)

     Smooth grid:    59381 G-vectors     FFT dimensions: (  45,  45,  60)

     Largest allocated arrays     est. size (Mb)     dimensions
        Kohn-Sham Wavefunctions         0.76 Mb     (   1238,   40)
        NL pseudopotentials             1.36 Mb     (   1238,   72)
        Each V/rho on FFT grid          0.88 Mb     (  57344)
        Each G-vector array             0.21 Mb     (  27933)
        G-vector shells                 0.06 Mb     (   7680)
     Largest temporary arrays     est. size (Mb)     dimensions
        Auxiliary wavefunctions         3.02 Mb     (   1238,  160)
        Each subspace H/S matrix        0.39 Mb     ( 160, 160)
        Each <psi_i|beta_j> matrix      0.04 Mb     (     72,   40)

     The potential is recalculated from file :
     ./SCRATCH/au_bulk.save/charge-density.dat


     negative rho (up, down):  0.167E-02 0.000E+00
     Starting wfc are   36 randomized atomic wfcs

     total cpu time spent up to now is        1.0 secs

     per-process dynamical memory:    22.0 Mb

     Band Structure Calculation
     Davidson diagonalization with overlap

     ethr =  2.27E-11,  avg # of iterations = 40.4

     total cpu time spent up to now is       23.5 secs

     End of band structure calculation

          k = 0.0000 0.0000 0.0496     band energies (ev):

    -9.8043  -7.5022  -7.5022  -7.1279  -6.4792  -6.3214  -6.3214  -6.0193
    -6.0193  -5.8425  -5.8404  -5.5493  -5.5479  -5.5329  -5.4833  -5.4818
    -5.1699  -5.1684  -4.7144  -4.4419  -4.3801  -4.1934  -4.1934  -0.0871
    -0.0871   0.5514   1.6078   1.9356   1.9356   2.3820   2.3820   2.8794
     2.9506   3.1866   3.2446   4.2141   4.5281   4.5281   4.5754   4.8782

          k = 0.0000 0.0000 0.1488     band energies (ev):

    -9.7013  -7.7485  -7.4570  -7.4570  -6.5988  -6.5988  -5.8575  -5.8304
    -5.8283  -5.7007  -5.7007  -5.6134  -5.6119  -5.5041  -5.4174  -5.4161
    -5.1839  -5.1821  -4.9284  -4.4334  -4.2993  -4.2993  -4.0692  -0.1478
     0.0150   0.0150   1.5179   1.5179   1.6531   2.5606   2.8562   2.8562
     2.9957   3.6570   3.8980   3.9148   4.5818   4.5818   4.9208   4.9821

          k = 0.0000 0.0000 0.2481     band energies (ev):

    -9.4965  -8.3101  -7.3673  -7.3673  -6.8468  -6.8468  -5.8064  -5.8044
    -5.6734  -5.6717  -5.4466  -5.3747  -5.3747  -5.3549  -5.3536  -5.3402
    -5.2106  -5.2091  -5.1033  -4.5415  -4.4940  -4.4940  -3.5356  -1.0514
     0.2055   0.2055   1.1308   1.1308   1.7437   2.2879   3.0859   3.3564
     3.3564   3.6272   4.1173   4.6882   4.6882   4.8818   4.9521   4.9521

          k = 0.0000 0.0000 0.3473     band energies (ev):

    -9.1930  -8.7952  -7.2339  -7.2339  -7.0596  -7.0596  -5.7714  -5.7696
    -5.7266  -5.7248  -5.3608  -5.2980  -5.2967  -5.2490  -5.2476  -5.2465
    -5.0540  -5.0540  -4.9670  -4.7539  -4.7539  -4.7129  -2.8193  -1.9685
     0.4653   0.4653   0.7776   0.7776   1.8796   2.0610   3.2212   3.4016
     3.8794   3.8794   4.4173   4.4173   4.6260   4.8463   4.8463   5.0543

          k = 0.0000 0.0000-0.3473     band energies (ev):

    -9.1930  -8.7952  -7.2339  -7.2339  -7.0596  -7.0596  -5.7714  -5.7696
    -5.7266  -5.7248  -5.3608  -5.2980  -5.2967  -5.2490  -5.2476  -5.2465
    -5.0540  -5.0540  -4.9670  -4.7539  -4.7539  -4.7129  -2.8193  -1.9685
     0.4653   0.4653   0.7776   0.7776   1.8796   2.0610   3.2212   3.4016
     3.8794   3.8794   4.4173   4.4173   4.6260   4.8463   4.8463   5.0543

          k = 0.0000 0.0000-0.2481     band energies (ev):

    -9.4965  -8.3101  -7.3673  -7.3673  -6.8468  -6.8468  -5.8064  -5.8044
    -5.6734  -5.6717  -5.4466  -5.3747  -5.3747  -5.3549  -5.3536  -5.3402
    -5.2106  -5.2091  -5.1033  -4.5415  -4.4940  -4.4940  -3.5356  -1.0514
     0.2055   0.2055   1.1308   1.1308   1.7437   2.2879   3.0859   3.3564
     3.3564   3.6272   4.1173   4.6882   4.6882   4.8818   4.9521   4.9521

          k = 0.0000 0.0000-0.1488     band energies (ev):

    -9.7013  -7.7485  -7.4570  -7.4570  -6.5988  -6.5988  -5.8575  -5.8304
    -5.8283  -5.7007  -5.7007  -5.6134  -5.6119  -5.5041  -5.4174  -5.4161
    -5.1839  -5.1821  -4.9284  -4.4334  -4.2993  -4.2993  -4.0692  -0.1478
     0.0150   0.0150   1.5179   1.5179   1.6531   2.5606   2.8562   2.8562
     2.9957   3.6570   3.8980   3.9148   4.5818   4.5818   4.9208   4.9821

          k = 0.0000 0.0000-0.0496     band energies (ev):

    -9.8043  -7.5022  -7.5022  -7.1279  -6.4792  -6.3214  -6.3214  -6.0193
    -6.0193  -5.8425  -5.8404  -5.5493  -5.5479  -5.5329  -5.4833  -5.4818
    -5.1699  -5.1684  -4.7144  -4.4419  -4.3801  -4.1934  -4.1934  -0.0871
    -0.0871   0.5514   1.6078   1.9356   1.9356   2.3820   2.3820   2.8794
     2.9506   3.1866   3.2446   4.2141   4.5281   4.5281   4.5754   4.8782

     the Fermi energy is    -4.1796 ev

     Writing output data file au_bulk.save
 
     init_run     :      0.86s CPU      0.86s WALL (       1 calls)
     electrons    :     21.11s CPU     22.46s WALL (       1 calls)

     Called by init_run:
     wfcinit      :      0.00s CPU      0.00s WALL (       1 calls)
     potinit      :      0.11s CPU      0.12s WALL (       1 calls)

     Called by electrons:
     c_bands      :     21.11s CPU     22.45s WALL (       1 calls)
     v_of_rho     :      0.08s CPU      0.08s WALL (       1 calls)
     newd         :      0.36s CPU      0.36s WALL (       1 calls)

     Called by c_bands:
     init_us_2    :      0.00s CPU      0.01s WALL (       8 calls)
     cegterg      :     19.97s CPU     20.06s WALL (      21 calls)

     Called by *egterg:
     h_psi        :     12.09s CPU     12.28s WALL (     352 calls)
     s_psi        :      0.62s CPU      0.68s WALL (     352 calls)
     g_psi        :      0.14s CPU      0.17s WALL (     323 calls)
     cdiaghg      :      3.12s CPU      3.06s WALL (     331 calls)

     Called by h_psi:
     add_vuspsi   :      0.69s CPU      0.68s WALL (     352 calls)

     General routines
     calbec       :      0.72s CPU      0.85s WALL (     352 calls)
     fft          :      0.07s CPU      0.05s WALL (      12 calls)
     ffts         :      0.00s CPU      0.00s WALL (       1 calls)
     fftw         :      9.06s CPU      8.92s WALL (   11778 calls)
     interpolate  :      0.00s CPU      0.01s WALL (       1 calls)
     davcio       :      0.01s CPU      0.04s WALL (      16 calls)
 
     Parallel routines
     fft_scatter  :      2.76s CPU      2.58s WALL (   11791 calls)
 
     PWSCF        :    22.45s CPU        24.05s WALL

 
   This run was terminated on:  20:10:27  17Apr2014            

=------------------------------------------------------------------------------=
   JOB DONE.
=------------------------------------------------------------------------------=
