
     Program PWSCF v.> 4.2      starts on  8Oct2010 at 18:53:27 

     This program is part of the open-source Quantum ESPRESSO suite
     for quantum simulation of materials; please cite
         "P. Giannozzi et al., J. Phys.:Condens. Matter 21 395502 (2009);
          URL http://www.quantum-espresso.org", 
     in publications or presentations arising from this work. More details at
     http://www.quantum-espresso.org/wiki/index.php/Citing_Quantum-ESPRESSO

     Parallel version (MPI), running on     6 processors
     R & G space division:  proc/pool =    6

     Current dimensions of program PWSCF are:
     Max number of different atomic species (ntypx) = 10
     Max number of k-points (npk) =  40000
     Max angular momentum in pseudopotentials (lmaxx) =  3
     Waiting for input...

     XC functional enforced from input :
     Exchange-correlation      = PBE (1434)
     EXX-fraction              =        0.00
     !!! Any further DFT definition will be discarded
     !!! Please, verify this is what you really want !


     Atomic positions and unit cell read from directory:
     ./SCRATCH/au_bda.save/
 

     Subspace diagonalization in iterative solution of the eigenvalue problem:
     a serial algorithm will be used


     Planes per process (thick) : nr3 = 240 npp =   40 ncplane =  4096
     Planes per process (smooth): nr3s= 180 npps=   30 ncplanes=  2025
 
     Proc/  planes cols     G    planes cols    G      columns  G
     Pool       (dense grid)       (smooth grid)      (wavefct grid)
        1    40    525    80319   30    264    28420     66     3634
        2    40    525    80317   30    264    28408     67     3643
        3    40    525    80317   30    263    28397     67     3639
        4    40    525    80319   30    263    28381     67     3639
        5    40    524    80306   30    263    28405     67     3639
        6    40    525    80311   30    264    28420     67     3639
     tot    240   3149   481889  180   1581   170431    401    21833
 


     bravais-lattice index     =            8
     lattice parameter (a_0)   =      15.0000  a.u.
     unit-cell volume          =   12219.9075 (a.u.)^3
     number of atoms/cell      =           25
     number of atomic types    =            4
     number of electrons       =       141.00
     number of Kohn-Sham states=          140
     kinetic-energy cutoff     =      22.0000  Ry
     charge density cutoff     =     176.0000  Ry
     Exchange-correlation      = PBE (1434)
     EXX-fraction              =        0.00

     celldm(1)=  15.000000  celldm(2)=   1.000000  celldm(3)=   3.620713
     celldm(4)=   0.000000  celldm(5)=   0.000000  celldm(6)=   0.000000

     crystal axes: (cart. coord. in units of a_0)
               a(1) = (   1.000000   0.000000   0.000000 )  
               a(2) = (   0.000000   1.000000   0.000000 )  
               a(3) = (   0.000000   0.000000   3.620713 )  

     reciprocal axes: (cart. coord. in units 2 pi/a_0)
               b(1) = (  1.000000  0.000000  0.000000 )  
               b(2) = (  0.000000  1.000000  0.000000 )  
               b(3) = (  0.000000  0.000000  0.276189 )  


     PseudoPot. # 1 for Au read from file Au.pw91-d-van.UPF
     MD5 check sum: dc02f59ef2ea6b62d9e9493d750aaae0
     Pseudo is Ultrasoft, Zval = 11.0
     Generated by new atomic code, or converted to UPF format
     Using radial grid of  939 points,  6 beta functions with: 
                l(1) =   0
                l(2) =   0
                l(3) =   1
                l(4) =   1
                l(5) =   2
                l(6) =   2
     Q(r) pseudized with  3 coefficients,  rinner =    1.600   1.800   1.600
                                                       1.600   1.800

     PseudoPot. # 2 for C  read from file C.pbe-van_bm.UPF
     MD5 check sum: 1a69bf6b8db32088f5b2163dbdb77a27
     Pseudo is Ultrasoft, Zval =  4.0
     Generated by new atomic code, or converted to UPF format
     Using radial grid of  721 points,  4 beta functions with: 
                l(1) =   0
                l(2) =   0
                l(3) =   1
                l(4) =   1
     Q(r) pseudized with  8 coefficients,  rinner =    0.800   0.800   0.800


     PseudoPot. # 3 for N  read from file N.pbe-van_bm.UPF
     MD5 check sum: 90d10febe142ad51ac9d5be1deb811c4
     Pseudo is Ultrasoft, Zval =  5.0
     Generated by new atomic code, or converted to UPF format
     Using radial grid of  729 points,  4 beta functions with: 
                l(1) =   0
                l(2) =   0
                l(3) =   1
                l(4) =   1
     Q(r) pseudized with  8 coefficients,  rinner =    0.800   0.800   0.800


     PseudoPot. # 4 for H  read from file H.pbe-van_bm.UPF
     MD5 check sum: b5ee9d7bfd3a09ee7748110bda690ff7
     Pseudo is Ultrasoft, Zval =  1.0
     Generated by new atomic code, or converted to UPF format
     Using radial grid of  615 points,  1 beta functions with: 
                l(1) =   0
     Q(r) pseudized with  8 coefficients,  rinner =    0.800

     atomic species   valence    mass     pseudopotential
        Au            11.00   196.96650     Au( 1.00)
        C              4.00    12.01000     C ( 1.00)
        N              5.00    14.01000     N ( 1.00)
        H              1.00     1.00800     H ( 1.00)

     No symmetry found

   Cartesian axes

     site n.     atom                  positions (a_0 units)
         1           Au  tau(  1) = (   0.1570698   0.1040872  -1.4972767  )
         2           Au  tau(  2) = (   0.1570698   0.1040872  -1.1823223  )
         3           Au  tau(  3) = (   0.1570698   0.1040872  -0.8673680  )
         4           Au  tau(  4) = (   0.1570698   0.1040872  -0.5524136  )
         5           H   tau(  5) = (   0.3750662   0.2710840  -0.3488349  )
         6           H   tau(  6) = (   0.1898805   0.3652598  -0.3382009  )
         7           N   tau(  7) = (   0.2529507   0.2571206  -0.3163008  )
         8           C   tau(  8) = (   0.2242489   0.1850647  -0.1569272  )
         9           H   tau(  9) = (   0.4588414   0.0493594  -0.1506940  )
        10           H   tau( 10) = (  -0.0199890   0.2989157  -0.1260552  )
        11           C   tau( 11) = (   0.0727985   0.2140259  -0.0720060  )
        12           C   tau( 12) = (   0.3412209   0.0747916  -0.0855031  )
        13           C   tau( 13) = (   0.3079592  -0.0036735   0.0672118  )
        14           C   tau( 14) = (   0.0396808   0.1358858   0.0806316  )
        15           C   tau( 15) = (   0.1569889   0.0260220   0.1525051  )
        16           H   tau( 16) = (   0.4001979  -0.0896119   0.1205066  )
        17           H   tau( 17) = (  -0.0780865   0.1611724   0.1456550  )
        18           N   tau( 18) = (   0.1276316  -0.0445301   0.3126250  )
        19           H   tau( 19) = (   0.0062002  -0.0721377   0.3383633  )
        20           H   tau( 20) = (   0.2014536  -0.1438686   0.3416505  )
        21           Au  tau( 21) = (   0.1785466   0.1286613   0.5486634  )
        22           Au  tau( 22) = (   0.1785466   0.1286613   0.8636178  )
        23           Au  tau( 23) = (   0.1785466   0.1286613   1.1785722  )
        24           Au  tau( 24) = (   0.1785466   0.1286613   1.4935265  )
        25           Au  tau( 25) = (   0.1785466   0.1286613   1.8084809  )

     number of k points=     4  gaussian smearing, width (Ry)=  0.0100
                       cart. coord. in units 2pi/a_0
        k(    1) = (   0.0000000   0.0000000   0.0345236), wk =   0.5000000
        k(    2) = (   0.0000000   0.0000000   0.1035708), wk =   0.5000000
        k(    3) = (   0.0000000   0.0000000  -0.1035708), wk =   0.5000000
        k(    4) = (   0.0000000   0.0000000  -0.0345236), wk =   0.5000000

     G cutoff = 1003.0797  ( 481889 G-vectors)     FFT grid: ( 64, 64,240)
     G cutoff =  501.5399  ( 170431 G-vectors)  smooth grid: ( 45, 45,180)

     Largest allocated arrays     est. size (Mb)     dimensions
        Kohn-Sham Wavefunctions         7.60 Mb     (   3557, 140)
        NL pseudopotentials            12.70 Mb     (   3557, 234)
        Each V/rho on FFT grid          2.50 Mb     ( 163840)
        Each G-vector array             0.61 Mb     (  80319)
        G-vector shells                 0.16 Mb     (  21568)
     Largest temporary arrays     est. size (Mb)     dimensions
        Auxiliary wavefunctions        30.39 Mb     (   3557, 560)
        Each subspace H/S matrix        4.79 Mb     (    560, 560)
        Each <psi_i|beta_j> matrix      0.50 Mb     (    234, 140)

     The potential is recalculated from file :
     ./SCRATCH/au_bda.save/charge-density.dat


     negative rho (up, down):  0.526E-02 0.000E+00
     Starting wfc are  121 atomic +   19 random wfc

     total cpu time spent up to now is      6.89 secs

     per-process dynamical memory:    87.4 Mb

     Band Structure Calculation
     Davidson diagonalization with overlap

     ethr =  7.09E-12,  avg # of iterations = 46.2

     total cpu time spent up to now is    326.10 secs

     End of band structure calculation

          k = 0.0000 0.0000 0.0345     band energies (ev):

   -23.3884 -23.2265 -20.5886 -18.3689 -17.7208 -15.2914 -14.8258 -13.1658
   -13.0154 -12.4258 -12.0670 -10.4706 -10.2419  -9.9925  -9.8854  -9.6935
    -9.0891  -8.6179  -8.2914  -8.0197  -7.7393  -7.4651  -6.6418  -6.4400
    -6.4333  -6.3101  -6.2508  -6.1318  -6.0954  -6.0371  -5.7721  -5.7360
    -5.6023  -5.4375  -5.2684  -5.1708  -5.1596  -5.1432  -5.1316  -4.9202
    -4.8476  -4.8122  -4.8027  -4.7553  -4.7353  -4.7340  -4.7032  -4.5790
    -4.5748  -4.5317  -4.4945  -4.4934  -4.3880  -4.3547  -4.3169  -4.3135
    -4.2377  -4.2338  -4.1886  -4.1751  -4.1590  -4.1174  -4.0410  -3.9506
    -3.6764  -3.6656  -3.6229  -3.4907  -3.4273  -3.3101  -3.2248  -2.8347
    -1.6902  -1.0270  -0.6251  -0.4512  -0.2646   0.3759   0.6426   0.6825
     0.7503   0.7858   0.8987   1.1954   1.2102   1.3995   1.4877   1.6410
     1.7942   1.8855   1.9581   2.0091   2.1150   2.2253   2.4030   2.4803
     2.6109   2.6518   2.7794   2.8179   2.9486   3.0453   3.0937   3.2904
     3.3102   3.4630   3.6270   3.6790   3.7390   3.8097   3.9490   3.9889
     4.0612   4.2134   4.2797   4.3113   4.3661   4.4434   4.5192   4.5974
     4.7368   4.8050   4.8945   4.9556   4.9772   5.0456   5.1263   5.2298
     5.2664   5.3479   5.3689   5.4711   5.5218   5.5463   5.5807   5.6405
     5.7290   5.7750   5.8207   5.8345

          k = 0.0000 0.0000 0.1036     band energies (ev):

   -23.3883 -23.2265 -20.5885 -18.3688 -17.7207 -15.2915 -14.8252 -13.1657
   -13.0149 -12.4254 -12.0663 -10.4702 -10.2416  -9.9922  -9.8853  -9.6934
    -9.0875  -8.6422  -8.2109  -8.0203  -7.8818  -7.3459  -6.6777  -6.4373
    -6.4140  -6.3242  -6.3088  -6.1164  -6.0600  -6.0130  -5.8363  -5.7388
    -5.6261  -5.3134  -5.2631  -5.1808  -5.1602  -5.1433  -5.1019  -4.9762
    -4.9006  -4.8122  -4.8064  -4.7558  -4.7353  -4.7338  -4.6545  -4.5810
    -4.5747  -4.5623  -4.4955  -4.4934  -4.3855  -4.3305  -4.3168  -4.3044
    -4.2378  -4.2342  -4.1888  -4.1765  -4.1597  -4.1367  -4.0480  -3.9437
    -3.6757  -3.6643  -3.5858  -3.5211  -3.4306  -3.3108  -3.2764  -2.7502
    -1.7409  -1.0286  -0.7153  -0.3510  -0.1192   0.2212   0.6463   0.6902
     0.7083   0.7370   0.9423   1.1575   1.2504   1.5005   1.5342   1.5819
     1.8166   1.8425   1.9189   2.0758   2.1435   2.2224   2.3530   2.4465
     2.5119   2.7272   2.8069   2.8302   2.8962   3.0500   3.1246   3.2587
     3.3817   3.5315   3.6364   3.6784   3.7160   3.8168   3.8393   3.9753
     4.0947   4.1503   4.2721   4.3181   4.3449   4.4336   4.5527   4.6989
     4.7781   4.8367   4.9074   4.9463   5.0141   5.0344   5.1160   5.1434
     5.2483   5.3128   5.3460   5.4013   5.5348   5.5596   5.5879   5.6414
     5.6838   5.7443   5.7874   5.8573

          k = 0.0000 0.0000-0.1036     band energies (ev):

   -23.3883 -23.2265 -20.5885 -18.3688 -17.7207 -15.2915 -14.8252 -13.1657
   -13.0149 -12.4254 -12.0663 -10.4702 -10.2416  -9.9922  -9.8853  -9.6934
    -9.0875  -8.6422  -8.2109  -8.0203  -7.8818  -7.3459  -6.6777  -6.4373
    -6.4140  -6.3242  -6.3088  -6.1164  -6.0600  -6.0130  -5.8363  -5.7388
    -5.6261  -5.3134  -5.2631  -5.1808  -5.1602  -5.1433  -5.1019  -4.9762
    -4.9006  -4.8122  -4.8064  -4.7558  -4.7353  -4.7338  -4.6545  -4.5810
    -4.5747  -4.5623  -4.4955  -4.4934  -4.3855  -4.3305  -4.3168  -4.3044
    -4.2378  -4.2342  -4.1888  -4.1765  -4.1597  -4.1367  -4.0480  -3.9437
    -3.6757  -3.6643  -3.5858  -3.5211  -3.4306  -3.3108  -3.2764  -2.7502
    -1.7409  -1.0286  -0.7153  -0.3510  -0.1192   0.2212   0.6463   0.6902
     0.7083   0.7370   0.9423   1.1575   1.2504   1.5005   1.5342   1.5819
     1.8166   1.8425   1.9189   2.0758   2.1435   2.2224   2.3530   2.4465
     2.5119   2.7272   2.8069   2.8302   2.8962   3.0500   3.1246   3.2587
     3.3817   3.5315   3.6364   3.6784   3.7160   3.8168   3.8393   3.9753
     4.0947   4.1503   4.2721   4.3181   4.3449   4.4336   4.5527   4.6989
     4.7781   4.8367   4.9074   4.9463   5.0141   5.0344   5.1160   5.1434
     5.2483   5.3128   5.3460   5.4013   5.5348   5.5596   5.5879   5.6414
     5.6838   5.7443   5.7874   5.8573

          k = 0.0000 0.0000-0.0345     band energies (ev):

   -23.3884 -23.2265 -20.5886 -18.3689 -17.7208 -15.2914 -14.8258 -13.1658
   -13.0154 -12.4258 -12.0670 -10.4706 -10.2419  -9.9925  -9.8854  -9.6935
    -9.0891  -8.6179  -8.2914  -8.0197  -7.7393  -7.4651  -6.6418  -6.4400
    -6.4333  -6.3101  -6.2508  -6.1318  -6.0954  -6.0371  -5.7721  -5.7360
    -5.6023  -5.4375  -5.2684  -5.1708  -5.1596  -5.1432  -5.1316  -4.9202
    -4.8476  -4.8122  -4.8027  -4.7553  -4.7353  -4.7340  -4.7032  -4.5790
    -4.5748  -4.5317  -4.4945  -4.4934  -4.3880  -4.3547  -4.3169  -4.3135
    -4.2377  -4.2338  -4.1886  -4.1751  -4.1590  -4.1174  -4.0410  -3.9506
    -3.6764  -3.6656  -3.6229  -3.4907  -3.4273  -3.3101  -3.2248  -2.8347
    -1.6902  -1.0270  -0.6251  -0.4512  -0.2646   0.3759   0.6426   0.6825
     0.7503   0.7858   0.8987   1.1954   1.2102   1.3995   1.4877   1.6410
     1.7942   1.8855   1.9581   2.0091   2.1150   2.2253   2.4030   2.4803
     2.6109   2.6518   2.7794   2.8179   2.9486   3.0453   3.0937   3.2904
     3.3102   3.4630   3.6270   3.6790   3.7390   3.8097   3.9490   3.9889
     4.0612   4.2134   4.2797   4.3113   4.3661   4.4434   4.5192   4.5974
     4.7368   4.8050   4.8945   4.9556   4.9772   5.0456   5.1263   5.2298
     5.2664   5.3479   5.3689   5.4711   5.5218   5.5463   5.5807   5.6405
     5.7290   5.7750   5.8207   5.8345

     the Fermi energy is    -3.2096 ev

     Writing output data file au_bda.save
 
     init_run     :      6.66s CPU      6.73s WALL (       1 calls)
     electrons    :    318.22s CPU    319.26s WALL (       1 calls)

     Called by init_run:
     wfcinit      :      0.00s CPU      0.00s WALL (       1 calls)
     potinit      :      0.39s CPU      0.40s WALL (       1 calls)

     Called by electrons:
     c_bands      :    318.18s CPU    319.21s WALL (       1 calls)
     v_of_rho     :      0.29s CPU      0.30s WALL (       1 calls)
     newd         :      4.73s CPU      4.76s WALL (       1 calls)

     Called by c_bands:
     init_us_2    :      0.02s CPU      0.03s WALL (       4 calls)
     cegterg      :    309.02s CPU    309.86s WALL (      12 calls)

     Called by *egterg:
     h_psi        :    145.51s CPU    145.82s WALL (     201 calls)
     s_psi        :     12.68s CPU     12.71s WALL (     201 calls)
     g_psi        :      1.15s CPU      1.13s WALL (     185 calls)
     cdiaghg      :     47.19s CPU     47.26s WALL (     189 calls)

     Called by h_psi:
     add_vuspsi   :     13.27s CPU     13.26s WALL (     201 calls)

     General routines
     calbec       :     16.52s CPU     16.52s WALL (     201 calls)
     fft          :      0.26s CPU      0.28s WALL (      12 calls)
     ffts         :      0.01s CPU      0.01s WALL (       1 calls)
     fftw         :     98.73s CPU     99.32s WALL (   24690 calls)
     interpolate  :      0.03s CPU      0.03s WALL (       1 calls)
     davcio       :      0.01s CPU      0.14s WALL (       8 calls)
 
     Parallel routines
     fft_scatter  :     32.35s CPU     32.27s WALL (   24703 calls)
 
     PWSCF        :  5m26.22s CPU     5m27.81s WALL

 
   This run was terminated on:  18:58:54   8Oct2010            

=------------------------------------------------------------------------------=
   JOB DONE.
=------------------------------------------------------------------------------=
