
     Program PROJWFC v.5.0.2 (svn rev. 9392) starts on 17Apr2014 at 18:19:52 

     This program is part of the open-source Quantum ESPRESSO suite
     for quantum simulation of materials; please cite
         "P. Giannozzi et al., J. Phys.:Condens. Matter 21 395502 (2009);
          URL http://www.quantum-espresso.org", 
     in publications or presentations arising from this work. More details at
     http://www.quantum-espresso.org/quote.php

     Parallel version (MPI), running on     8 processors
     R & G space division:  proc/nbgrp/npool/nimage =       8

   Info: using nr1, nr2, nr3 values from input

   Info: using nr1s, nr2s, nr3s values from input

     IMPORTANT: XC functional enforced from input :
     Exchange-correlation      = PBE ( 1 4 3 4 0)
     EXX-fraction              =        0.00
     Any further DFT definition will be discarded
     Please, verify this is what you really want

 
     Parallelization info
     --------------------
     sticks:   dense  smooth     PW     G-vecs:    dense   smooth      PW
     Min         393     197     52                20945     7417    1020
     Max         394     198     53                20950     7428    1025
     Sum        3149    1581    421               167587    59381    8185
 

     negative rho (up, down):  0.167E-02 0.000E+00

     Gaussian broadening (read from file): ngauss,degauss=   0    0.010000


     Calling pprojwave .... 
 
  Problem Sizes 
  natomwfc =           36
  nbnd     =           40
  nkstot   =            8
  npwx     =          931
  nkb      =           72
 

     Atomic states used for projection
     (read from pseudopotential files):

     state #   1: atom   1 (Au ), wfc  1 (l=0 m= 1)
     state #   2: atom   1 (Au ), wfc  2 (l=1 m= 1)
     state #   3: atom   1 (Au ), wfc  2 (l=1 m= 2)
     state #   4: atom   1 (Au ), wfc  2 (l=1 m= 3)
     state #   5: atom   1 (Au ), wfc  3 (l=2 m= 1)
     state #   6: atom   1 (Au ), wfc  3 (l=2 m= 2)
     state #   7: atom   1 (Au ), wfc  3 (l=2 m= 3)
     state #   8: atom   1 (Au ), wfc  3 (l=2 m= 4)
     state #   9: atom   1 (Au ), wfc  3 (l=2 m= 5)
     state #  10: atom   2 (Au ), wfc  1 (l=0 m= 1)
     state #  11: atom   2 (Au ), wfc  2 (l=1 m= 1)
     state #  12: atom   2 (Au ), wfc  2 (l=1 m= 2)
     state #  13: atom   2 (Au ), wfc  2 (l=1 m= 3)
     state #  14: atom   2 (Au ), wfc  3 (l=2 m= 1)
     state #  15: atom   2 (Au ), wfc  3 (l=2 m= 2)
     state #  16: atom   2 (Au ), wfc  3 (l=2 m= 3)
     state #  17: atom   2 (Au ), wfc  3 (l=2 m= 4)
     state #  18: atom   2 (Au ), wfc  3 (l=2 m= 5)
     state #  19: atom   3 (Au ), wfc  1 (l=0 m= 1)
     state #  20: atom   3 (Au ), wfc  2 (l=1 m= 1)
     state #  21: atom   3 (Au ), wfc  2 (l=1 m= 2)
     state #  22: atom   3 (Au ), wfc  2 (l=1 m= 3)
     state #  23: atom   3 (Au ), wfc  3 (l=2 m= 1)
     state #  24: atom   3 (Au ), wfc  3 (l=2 m= 2)
     state #  25: atom   3 (Au ), wfc  3 (l=2 m= 3)
     state #  26: atom   3 (Au ), wfc  3 (l=2 m= 4)
     state #  27: atom   3 (Au ), wfc  3 (l=2 m= 5)
     state #  28: atom   4 (Au ), wfc  1 (l=0 m= 1)
     state #  29: atom   4 (Au ), wfc  2 (l=1 m= 1)
     state #  30: atom   4 (Au ), wfc  2 (l=1 m= 2)
     state #  31: atom   4 (Au ), wfc  2 (l=1 m= 3)
     state #  32: atom   4 (Au ), wfc  3 (l=2 m= 1)
     state #  33: atom   4 (Au ), wfc  3 (l=2 m= 2)
     state #  34: atom   4 (Au ), wfc  3 (l=2 m= 3)
     state #  35: atom   4 (Au ), wfc  3 (l=2 m= 4)
     state #  36: atom   4 (Au ), wfc  3 (l=2 m= 5)

 k =   0.0000000000  0.0000000000  0.0496103438
     e =    -9.80454 eV
     psi = 0.185*[#   5]+0.185*[#  14]+0.185*[#  23]+0.185*[#  32]+0.064*[#   1]+
          +0.064*[#  10]+0.064*[#  19]+0.064*[#  28]+
    |psi|^2 = 0.997
     e =    -7.50248 eV
     psi = 0.248*[#   7]+0.248*[#  16]+0.248*[#  25]+0.248*[#  34]+0.002*[#   6]+
          +0.002*[#  15]+0.002*[#  24]+0.002*[#  33]+
    |psi|^2 = 0.999
     e =    -7.50248 eV
     psi = 0.248*[#   6]+0.248*[#  15]+0.248*[#  24]+0.248*[#  33]+0.002*[#   7]+
          +0.002*[#  16]+0.002*[#  25]+0.002*[#  34]+
    |psi|^2 = 0.999
     e =    -7.12815 eV
     psi = 0.207*[#   5]+0.207*[#  14]+0.207*[#  23]+0.207*[#  32]+0.023*[#   1]+
          +0.023*[#  10]+0.023*[#  19]+0.023*[#  28]+0.019*[#   2]+0.019*[#  11]+
          +0.019*[#  20]+0.019*[#  29]+
    |psi|^2 = 0.994
     e =    -6.47947 eV
     psi = 0.221*[#   5]+0.221*[#  14]+0.221*[#  23]+0.221*[#  32]+0.016*[#   2]+
          +0.016*[#  11]+0.016*[#  20]+0.016*[#  29]+0.012*[#   1]+0.012*[#  10]+
          +0.012*[#  19]+0.012*[#  28]+
    |psi|^2 = 0.993
     e =    -6.32163 eV
     psi = 0.178*[#   7]+0.178*[#  16]+0.178*[#  25]+0.178*[#  34]+0.064*[#   6]+
          +0.064*[#  15]+0.064*[#  24]+0.064*[#  33]+0.005*[#   4]+0.005*[#  13]+
          +0.005*[#  22]+0.005*[#  31]+0.002*[#   3]+0.002*[#  12]+0.002*[#  21]+
          +0.002*[#  30]+
    |psi|^2 = 0.998
     e =    -6.32163 eV
     psi = 0.178*[#   6]+0.178*[#  15]+0.178*[#  24]+0.178*[#  33]+0.064*[#   7]+
          +0.064*[#  16]+0.064*[#  25]+0.064*[#  34]+0.005*[#   3]+0.005*[#  12]+
          +0.005*[#  21]+0.005*[#  30]+0.002*[#   4]+0.002*[#  13]+0.002*[#  22]+
          +0.002*[#  31]+
    |psi|^2 = 0.998
     e =    -6.01951 eV
     psi = 0.183*[#   7]+0.183*[#  16]+0.183*[#  25]+0.183*[#  34]+0.059*[#   6]+
          +0.058*[#  15]+0.059*[#  24]+0.059*[#  33]+0.006*[#   4]+0.006*[#  13]+
          +0.006*[#  22]+0.006*[#  31]+0.002*[#   3]+0.002*[#  12]+0.002*[#  21]+
          +0.002*[#  30]+
    |psi|^2 = 0.997
     e =    -6.01951 eV
     psi = 0.183*[#   6]+0.183*[#  15]+0.183*[#  24]+0.183*[#  33]+0.059*[#   7]+
          +0.058*[#  16]+0.059*[#  25]+0.059*[#  34]+0.006*[#   3]+0.006*[#  12]+
          +0.006*[#  21]+0.006*[#  30]+0.002*[#   4]+0.002*[#  13]+0.002*[#  22]+
          +0.002*[#  31]+
    |psi|^2 = 0.997
     e =    -5.84273 eV
     psi = 0.250*[#   8]+0.250*[#  17]+0.250*[#  35]+0.249*[#  26]+
    |psi|^2 = 0.999
     e =    -5.84063 eV
     psi = 0.250*[#   9]+0.250*[#  18]+0.250*[#  36]+0.249*[#  27]+
    |psi|^2 = 0.999
     e =    -5.54957 eV
     psi = 0.250*[#  17]+0.250*[#  35]+0.250*[#   8]+0.250*[#  26]+
    |psi|^2 = 0.999
     e =    -5.54814 eV
     psi = 0.250*[#  18]+0.250*[#  36]+0.250*[#   9]+0.250*[#  27]+
    |psi|^2 = 0.999
     e =    -5.53303 eV
     psi = 0.184*[#   1]+0.184*[#  10]+0.184*[#  19]+0.184*[#  28]+0.065*[#   5]+
          +0.065*[#  14]+0.065*[#  23]+0.065*[#  32]+0.001*[#   2]+0.001*[#  11]+
          +0.001*[#  20]+0.001*[#  29]+
    |psi|^2 = 1.000
     e =    -5.48352 eV
     psi = 0.250*[#   8]+0.250*[#  26]+0.250*[#  17]+0.250*[#  35]+
    |psi|^2 = 0.999
     e =    -5.48203 eV
     psi = 0.250*[#   9]+0.250*[#  27]+0.250*[#  18]+0.250*[#  36]+
    |psi|^2 = 0.999
     e =    -5.17013 eV
     psi = 0.250*[#  26]+0.250*[#  35]+0.250*[#  17]+0.250*[#   8]+
    |psi|^2 = 1.000
     e =    -5.16868 eV
     psi = 0.250*[#  27]+0.250*[#  36]+0.250*[#  18]+0.250*[#   9]+
    |psi|^2 = 1.000
     e =    -4.71449 eV
     psi = 0.126*[#   1]+0.126*[#  10]+0.126*[#  19]+0.126*[#  28]+0.081*[#   2]+
          +0.081*[#  11]+0.081*[#  20]+0.081*[#  29]+0.043*[#   5]+0.042*[#  14]+
          +0.042*[#  23]+0.042*[#  32]+
    |psi|^2 = 0.998
     e =    -4.44207 eV
     psi = 0.130*[#   1]+0.130*[#  10]+0.130*[#  19]+0.130*[#  28]+0.091*[#   2]+
          +0.091*[#  11]+0.091*[#  20]+0.091*[#  29]+0.028*[#   5]+0.028*[#  14]+
          +0.028*[#  32]+0.027*[#  23]+
    |psi|^2 = 0.997
     e =    -4.38030 eV
     psi = 0.210*[#  23]+0.210*[#  14]+0.210*[#  32]+0.209*[#   5]+0.041*[#  19]+
          +0.040*[#  10]+0.040*[#  28]+0.040*[#   1]+
    |psi|^2 = 1.000
     e =    -4.19373 eV
     psi = 0.250*[#  24]+0.250*[#   6]+0.250*[#  15]+0.250*[#  33]+
    |psi|^2 = 1.000
     e =    -4.19373 eV
     psi = 0.250*[#  16]+0.250*[#  25]+0.250*[#   7]+0.250*[#  34]+
    |psi|^2 = 1.000
     e =    -0.08715 eV
     psi = 0.131*[#   3]+0.131*[#  12]+0.131*[#  21]+0.131*[#  30]+0.111*[#   4]+
          +0.111*[#  13]+0.111*[#  22]+0.111*[#  31]+
    |psi|^2 = 0.969
     e =    -0.08715 eV
     psi = 0.131*[#   4]+0.131*[#  13]+0.131*[#  22]+0.131*[#  31]+0.111*[#   3]+
          +0.111*[#  12]+0.111*[#  21]+0.111*[#  30]+
    |psi|^2 = 0.969
     e =     0.55132 eV
     psi = 0.234*[#   2]+0.234*[#  11]+0.234*[#  20]+0.234*[#  29]+0.009*[#   1]+
          +0.009*[#  10]+0.009*[#  19]+0.009*[#  28]+0.002*[#   5]+0.002*[#  14]+
          +0.002*[#  23]+0.002*[#  32]+
    |psi|^2 = 0.984
     e =     1.60783 eV
     psi = 0.047*[#   2]+0.047*[#  11]+0.047*[#  20]+0.047*[#  29]+
    |psi|^2 = 0.187
     e =     1.93550 eV
     psi = 0.200*[#   4]+0.200*[#  13]+0.200*[#  22]+0.200*[#  31]+0.040*[#   3]+
          +0.040*[#  12]+0.040*[#  21]+0.040*[#  30]+0.007*[#   7]+0.007*[#  16]+
          +0.007*[#  25]+0.007*[#  34]+0.001*[#   6]+0.001*[#  15]+0.001*[#  24]+
          +0.001*[#  33]+
    |psi|^2 = 0.993
     e =     1.93550 eV
     psi = 0.200*[#   3]+0.200*[#  12]+0.200*[#  21]+0.200*[#  30]+0.040*[#   4]+
          +0.040*[#  13]+0.040*[#  22]+0.040*[#  31]+0.007*[#   6]+0.007*[#  15]+
          +0.007*[#  24]+0.007*[#  33]+0.001*[#   7]+0.001*[#  16]+0.001*[#  25]+
          +0.001*[#  34]+
    |psi|^2 = 0.993
     e =     2.38195 eV
     psi = 0.166*[#   4]+0.166*[#  13]+0.166*[#  22]+0.166*[#  31]+0.074*[#   3]+
          +0.074*[#  12]+0.074*[#  21]+0.074*[#  30]+0.005*[#   7]+0.005*[#  16]+
          +0.005*[#  25]+0.005*[#  34]+0.002*[#   6]+0.002*[#  15]+0.002*[#  24]+
          +0.002*[#  33]+
    |psi|^2 = 0.990
     e =     2.38195 eV
     psi = 0.166*[#   3]+0.166*[#  12]+0.166*[#  21]+0.166*[#  30]+0.074*[#   4]+
          +0.074*[#  13]+0.074*[#  22]+0.074*[#  31]+0.005*[#   6]+0.005*[#  15]+
          +0.005*[#  24]+0.005*[#  33]+0.002*[#   7]+0.002*[#  16]+0.002*[#  25]+
          +0.002*[#  34]+
    |psi|^2 = 0.990
     e =     2.87936 eV
     psi = 0.074*[#   2]+0.074*[#  11]+0.074*[#  20]+0.074*[#  29]+0.041*[#   1]+
          +0.041*[#  10]+0.041*[#  19]+0.041*[#  28]+
    |psi|^2 = 0.458
     e =     2.95063 eV
     psi = 
    |psi|^2 = 0.000
     e =     3.18647 eV
     psi = 0.191*[#   1]+0.191*[#  10]+0.191*[#  19]+0.191*[#  28]+0.037*[#   5]+
          +0.037*[#  14]+0.037*[#  23]+0.037*[#  32]+0.011*[#   2]+0.011*[#  11]+
          +0.011*[#  20]+0.011*[#  29]+
    |psi|^2 = 0.951
     e =     3.24461 eV
     psi = 0.065*[#   2]+0.065*[#  11]+0.065*[#  20]+0.065*[#  29]+0.037*[#   1]+
          +0.037*[#  10]+0.037*[#  19]+0.037*[#  28]+
    |psi|^2 = 0.408
     e =     4.21407 eV
     psi = 
    |psi|^2 = 0.000
     e =     4.52814 eV
     psi = 0.003*[#   3]+0.003*[#  12]+0.003*[#  21]+0.003*[#  30]+
    |psi|^2 = 0.014
     e =     4.52814 eV
     psi = 0.003*[#   4]+0.003*[#  13]+0.003*[#  22]+0.003*[#  31]+
    |psi|^2 = 0.014
     e =     4.57542 eV
     psi = 
    |psi|^2 = 0.000
     e =     4.87814 eV
     psi = 
    |psi|^2 = 0.000

 k =   0.0000000000  0.0000000000  0.1488310313
     e =    -9.70155 eV
     psi = 0.185*[#   5]+0.185*[#  14]+0.185*[#  23]+0.185*[#  32]+0.063*[#   1]+
          +0.063*[#  10]+0.063*[#  19]+0.063*[#  28]+0.001*[#   2]+0.001*[#  11]+
          +0.001*[#  20]+0.001*[#  29]+
    |psi|^2 = 0.998
     e =    -7.74877 eV
     psi = 0.197*[#   5]+0.197*[#  14]+0.197*[#  23]+0.197*[#  32]+0.033*[#   1]+
          +0.033*[#  10]+0.033*[#  19]+0.033*[#  28]+0.018*[#   2]+0.018*[#  11]+
          +0.018*[#  20]+0.018*[#  29]+
    |psi|^2 = 0.996
     e =    -7.45728 eV
     psi = 0.229*[#   6]+0.229*[#  15]+0.229*[#  24]+0.229*[#  33]+0.020*[#   7]+
          +0.020*[#  16]+0.020*[#  25]+0.020*[#  34]+
    |psi|^2 = 0.999
     e =    -7.45728 eV
     psi = 0.229*[#   7]+0.229*[#  16]+0.229*[#  25]+0.229*[#  34]+0.020*[#   6]+
          +0.020*[#  15]+0.020*[#  24]+0.020*[#  33]+
    |psi|^2 = 0.999
     e =    -6.59910 eV
     psi = 0.140*[#   6]+0.140*[#  15]+0.140*[#  24]+0.140*[#  33]+0.104*[#   7]+
          +0.104*[#  16]+0.104*[#  25]+0.104*[#  34]+0.003*[#   3]+0.003*[#  12]+
          +0.003*[#  21]+0.003*[#  30]+0.002*[#   4]+0.002*[#  13]+0.002*[#  22]+
          +0.002*[#  31]+
    |psi|^2 = 0.998
     e =    -6.59910 eV
     psi = 0.140*[#   7]+0.140*[#  16]+0.140*[#  25]+0.140*[#  34]+0.104*[#   6]+
          +0.104*[#  15]+0.104*[#  24]+0.104*[#  33]+0.003*[#   4]+0.003*[#  13]+
          +0.003*[#  22]+0.003*[#  31]+0.002*[#   3]+0.002*[#  12]+0.002*[#  21]+
          +0.002*[#  30]+
    |psi|^2 = 0.998
     e =    -5.85774 eV
     psi = 0.237*[#   5]+0.237*[#  14]+0.237*[#  23]+0.237*[#  32]+0.009*[#   2]+
          +0.009*[#  11]+0.009*[#  20]+0.009*[#  29]+0.002*[#   1]+0.002*[#  10]+
          +0.002*[#  19]+0.002*[#  28]+
    |psi|^2 = 0.992
     e =    -5.83070 eV
     psi = 0.250*[#   8]+0.250*[#  17]+0.250*[#  35]+0.249*[#  26]+
    |psi|^2 = 0.999
     e =    -5.82856 eV
     psi = 0.250*[#   9]+0.250*[#  18]+0.250*[#  36]+0.249*[#  27]+
    |psi|^2 = 0.999
     e =    -5.70093 eV
     psi = 0.236*[#   6]+0.236*[#  15]+0.236*[#  24]+0.236*[#  33]+0.009*[#   3]+
          +0.009*[#  12]+0.009*[#  21]+0.009*[#  30]+0.005*[#   7]+0.005*[#  16]+
          +0.005*[#  25]+0.005*[#  34]+
    |psi|^2 = 0.997
     e =    -5.70093 eV
     psi = 0.236*[#   7]+0.236*[#  16]+0.236*[#  25]+0.236*[#  34]+0.009*[#   4]+
          +0.009*[#  13]+0.009*[#  22]+0.009*[#  31]+0.005*[#   6]+0.005*[#  15]+
          +0.005*[#  24]+0.005*[#  33]+
    |psi|^2 = 0.997
     e =    -5.61367 eV
     psi = 0.250*[#  17]+0.250*[#  26]+0.250*[#  35]+0.250*[#   8]+
    |psi|^2 = 0.999
     e =    -5.61216 eV
     psi = 0.250*[#  18]+0.250*[#  27]+0.250*[#  36]+0.250*[#   9]+
    |psi|^2 = 0.999
     e =    -5.50425 eV
     psi = 0.174*[#   1]+0.174*[#  10]+0.174*[#  19]+0.174*[#  28]+0.064*[#   5]+
          +0.064*[#  14]+0.064*[#  23]+0.064*[#  32]+0.012*[#   2]+0.012*[#  11]+
          +0.012*[#  20]+0.012*[#  29]+
    |psi|^2 = 1.000
     e =    -5.41764 eV
     psi = 0.250*[#   8]+0.250*[#  17]+0.250*[#  26]+0.250*[#  35]+
    |psi|^2 = 0.999
     e =    -5.41632 eV
     psi = 0.250*[#   9]+0.250*[#  18]+0.250*[#  27]+0.250*[#  36]+
    |psi|^2 = 0.999
     e =    -5.18412 eV
     psi = 0.250*[#  26]+0.250*[#  35]+0.250*[#  17]+0.250*[#   8]+
    |psi|^2 = 1.000
     e =    -5.18240 eV
     psi = 0.250*[#  27]+0.250*[#  36]+0.250*[#  18]+0.250*[#   9]+
    |psi|^2 = 1.000
     e =    -4.92857 eV
     psi = 0.126*[#   1]+0.126*[#  10]+0.126*[#  19]+0.126*[#  28]+0.072*[#   2]+
          +0.072*[#  11]+0.072*[#  20]+0.072*[#  29]+0.052*[#   5]+0.052*[#  14]+
          +0.052*[#  23]+0.052*[#  32]+
    |psi|^2 = 0.999
     e =    -4.43364 eV
     psi = 0.212*[#  14]+0.212*[#  23]+0.212*[#   5]+0.212*[#  32]+0.038*[#   1]+
          +0.038*[#  10]+0.038*[#  19]+0.038*[#  28]+
    |psi|^2 = 1.000
     e =    -4.29955 eV
     psi = 0.248*[#  15]+0.248*[#  24]+0.248*[#   6]+0.248*[#  33]+0.002*[#   3]+
          +0.002*[#  12]+0.002*[#  21]+0.002*[#  30]+
    |psi|^2 = 0.999
     e =    -4.29955 eV
     psi = 0.248*[#   7]+0.248*[#  16]+0.248*[#  25]+0.248*[#  34]+0.002*[#   4]+
          +0.002*[#  13]+0.002*[#  22]+0.002*[#  31]+
    |psi|^2 = 0.999
     e =    -4.06933 eV
     psi = 0.133*[#   1]+0.133*[#  10]+0.133*[#  19]+0.133*[#  28]+0.106*[#   2]+
          +0.106*[#  11]+0.106*[#  20]+0.106*[#  29]+0.010*[#   5]+0.010*[#  14]+
          +0.010*[#  23]+0.010*[#  32]+
    |psi|^2 = 0.993
     e =    -0.14792 eV
     psi = 0.193*[#   2]+0.193*[#  11]+0.193*[#  20]+0.193*[#  29]+0.043*[#   1]+
          +0.043*[#  10]+0.043*[#  19]+0.043*[#  28]+0.010*[#   5]+0.010*[#  14]+
          +0.010*[#  23]+0.010*[#  32]+
    |psi|^2 = 0.986
     e =     0.01493 eV
     psi = 0.121*[#   4]+0.121*[#  13]+0.121*[#  22]+0.121*[#  31]+0.120*[#   3]+
          +0.120*[#  12]+0.120*[#  21]+0.120*[#  30]+0.001*[#   6]+0.001*[#   7]+
          +0.001*[#  15]+0.001*[#  16]+0.001*[#  24]+0.001*[#  25]+0.001*[#  33]+
          +0.001*[#  34]+
    |psi|^2 = 0.972
     e =     0.01493 eV
     psi = 0.121*[#   3]+0.121*[#  12]+0.121*[#  21]+0.121*[#  30]+0.120*[#   4]+
          +0.120*[#  13]+0.120*[#  22]+0.120*[#  31]+0.001*[#   6]+0.001*[#   7]+
          +0.001*[#  15]+0.001*[#  16]+0.001*[#  24]+0.001*[#  25]+0.001*[#  33]+
          +0.001*[#  34]+
    |psi|^2 = 0.972
     e =     1.51784 eV
     psi = 0.201*[#   3]+0.201*[#  12]+0.201*[#  21]+0.201*[#  30]+0.038*[#   4]+
          +0.038*[#  13]+0.038*[#  22]+0.038*[#  31]+0.008*[#   6]+0.008*[#  15]+
          +0.008*[#  24]+0.008*[#  33]+0.001*[#   7]+0.001*[#  16]+0.001*[#  25]+
          +0.001*[#  34]+
    |psi|^2 = 0.993
     e =     1.51784 eV
     psi = 0.201*[#   4]+0.201*[#  13]+0.201*[#  22]+0.201*[#  31]+0.038*[#   3]+
          +0.038*[#  12]+0.038*[#  21]+0.038*[#  30]+0.008*[#   7]+0.008*[#  16]+
          +0.008*[#  25]+0.008*[#  34]+0.001*[#   6]+0.001*[#  15]+0.001*[#  24]+
          +0.001*[#  33]+
    |psi|^2 = 0.993
     e =     1.65311 eV
     psi = 0.114*[#   2]+0.114*[#  11]+0.114*[#  20]+0.114*[#  29]+0.006*[#   1]+
          +0.006*[#  10]+0.006*[#  19]+0.006*[#  28]+
    |psi|^2 = 0.482
     e =     2.56061 eV
     psi = 0.082*[#   2]+0.082*[#  11]+0.082*[#  20]+0.082*[#  29]+0.042*[#   1]+
          +0.042*[#  10]+0.042*[#  19]+0.042*[#  28]+
    |psi|^2 = 0.497
     e =     2.85614 eV
     psi = 0.202*[#   4]+0.202*[#  13]+0.202*[#  22]+0.202*[#  31]+0.037*[#   3]+
          +0.037*[#  12]+0.037*[#  21]+0.037*[#  30]+0.005*[#   7]+0.005*[#  16]+
          +0.005*[#  25]+0.005*[#  34]+
    |psi|^2 = 0.980
     e =     2.85614 eV
     psi = 0.202*[#   3]+0.202*[#  12]+0.202*[#  21]+0.202*[#  30]+0.037*[#   4]+
          +0.037*[#  13]+0.037*[#  22]+0.037*[#  31]+0.005*[#   6]+0.005*[#  15]+
          +0.005*[#  24]+0.005*[#  33]+
    |psi|^2 = 0.980
     e =     2.99571 eV
     psi = 
    |psi|^2 = 0.000
     e =     3.65701 eV
     psi = 0.055*[#   2]+0.055*[#  11]+0.055*[#  20]+0.055*[#  29]+0.031*[#   1]+
          +0.031*[#  10]+0.031*[#  19]+0.031*[#  28]+
    |psi|^2 = 0.345
     e =     3.89803 eV
     psi = 
    |psi|^2 = 0.000
     e =     3.91463 eV
     psi = 0.156*[#   1]+0.156*[#  10]+0.156*[#  19]+0.156*[#  28]+0.045*[#   2]+
          +0.045*[#  11]+0.045*[#  20]+0.045*[#  29]+0.026*[#   5]+0.026*[#  14]+
          +0.026*[#  23]+0.026*[#  32]+
    |psi|^2 = 0.910
     e =     4.58175 eV
     psi = 0.003*[#   3]+0.003*[#  12]+0.003*[#  21]+0.003*[#  30]+
    |psi|^2 = 0.013
     e =     4.58175 eV
     psi = 0.003*[#   4]+0.003*[#  13]+0.003*[#  22]+0.003*[#  31]+
    |psi|^2 = 0.013
     e =     4.92081 eV
     psi = 
    |psi|^2 = 0.000
     e =     4.98212 eV
     psi = 
    |psi|^2 = 0.000

 k =   0.0000000000  0.0000000000  0.2480517188
     e =    -9.49678 eV
     psi = 0.185*[#   5]+0.185*[#  14]+0.185*[#  23]+0.185*[#  32]+0.060*[#   1]+
          +0.060*[#  10]+0.059*[#  19]+0.059*[#  28]+0.005*[#   2]+0.005*[#  11]+
          +0.005*[#  20]+0.005*[#  29]+
    |psi|^2 = 0.998
     e =    -8.31030 eV
     psi = 0.192*[#   5]+0.192*[#  14]+0.192*[#  23]+0.192*[#  32]+0.041*[#   1]+
          +0.041*[#  10]+0.041*[#  19]+0.041*[#  28]+0.016*[#   2]+0.016*[#  11]+
          +0.016*[#  20]+0.016*[#  29]+
    |psi|^2 = 0.997
     e =    -7.36753 eV
     psi = 0.226*[#   6]+0.226*[#  15]+0.226*[#  24]+0.226*[#  33]+0.023*[#   7]+
          +0.023*[#  16]+0.023*[#  25]+0.023*[#  34]+
    |psi|^2 = 0.999
     e =    -7.36753 eV
     psi = 0.226*[#   7]+0.226*[#  16]+0.226*[#  25]+0.226*[#  34]+0.023*[#   6]+
          +0.023*[#  15]+0.023*[#  24]+0.023*[#  33]+
    |psi|^2 = 0.999
     e =    -6.84702 eV
     psi = 0.228*[#  24]+0.228*[#  33]+0.228*[#   6]+0.228*[#  15]+0.017*[#   7]+
          +0.017*[#  16]+0.017*[#  25]+0.017*[#  34]+0.004*[#   3]+0.004*[#  12]+
          +0.004*[#  21]+0.004*[#  30]+
    |psi|^2 = 0.999
     e =    -6.84702 eV
     psi = 0.228*[#  16]+0.228*[#  25]+0.228*[#  34]+0.228*[#   7]+0.017*[#   6]+
          +0.017*[#  15]+0.017*[#  24]+0.017*[#  33]+0.004*[#   4]+0.004*[#  13]+
          +0.004*[#  22]+0.004*[#  31]+
    |psi|^2 = 0.999
     e =    -5.80663 eV
     psi = 0.250*[#   8]+0.250*[#  17]+0.250*[#  35]+0.249*[#  26]+
    |psi|^2 = 0.999
     e =    -5.80466 eV
     psi = 0.250*[#   9]+0.250*[#  18]+0.250*[#  36]+0.249*[#  27]+
    |psi|^2 = 0.999
     e =    -5.67365 eV
     psi = 0.250*[#  26]+0.250*[#  35]+0.250*[#  17]+0.249*[#   8]+
    |psi|^2 = 0.999
     e =    -5.67194 eV
     psi = 0.250*[#  27]+0.250*[#  36]+0.250*[#  18]+0.249*[#   9]+
    |psi|^2 = 0.999
     e =    -5.44679 eV
     psi = 0.159*[#   1]+0.159*[#  10]+0.159*[#  19]+0.159*[#  28]+0.064*[#   5]+
          +0.064*[#  14]+0.064*[#  32]+0.064*[#  23]+0.027*[#   2]+0.027*[#  11]+
          +0.027*[#  20]+0.027*[#  29]+
    |psi|^2 = 1.000
     e =    -5.37499 eV
     psi = 0.129*[#   6]+0.129*[#  15]+0.129*[#  24]+0.129*[#  33]+0.111*[#   7]+
          +0.111*[#  16]+0.111*[#  25]+0.111*[#  34]+0.005*[#   3]+0.005*[#  12]+
          +0.005*[#  21]+0.005*[#  30]+0.004*[#   4]+0.004*[#  13]+0.004*[#  22]+
          +0.004*[#  31]+
    |psi|^2 = 0.997
     e =    -5.37499 eV
     psi = 0.129*[#   7]+0.129*[#  16]+0.129*[#  25]+0.129*[#  34]+0.111*[#   6]+
          +0.111*[#  15]+0.111*[#  24]+0.111*[#  33]+0.005*[#   4]+0.005*[#  13]+
          +0.005*[#  22]+0.005*[#  31]+0.004*[#   3]+0.004*[#  12]+0.004*[#  21]+
          +0.004*[#  30]+
    |psi|^2 = 0.997
     e =    -5.35516 eV
     psi = 0.250*[#   8]+0.250*[#  17]+0.250*[#  35]+0.250*[#  26]+
    |psi|^2 = 1.000
     e =    -5.35385 eV
     psi = 0.250*[#   9]+0.250*[#  18]+0.250*[#  36]+0.250*[#  27]+
    |psi|^2 = 1.000
     e =    -5.34043 eV
     psi = 0.244*[#  14]+0.244*[#  23]+0.244*[#  32]+0.244*[#   5]+0.003*[#   2]+
          +0.003*[#  11]+0.003*[#  20]+0.003*[#  29]+0.002*[#   1]+0.002*[#  10]+
          +0.002*[#  19]+0.002*[#  28]+
    |psi|^2 = 0.994
     e =    -5.21091 eV
     psi = 0.250*[#  26]+0.250*[#  35]+0.250*[#  17]+0.249*[#   8]+
    |psi|^2 = 1.000
     e =    -5.20934 eV
     psi = 0.250*[#  27]+0.250*[#  36]+0.250*[#  18]+0.249*[#   9]+
    |psi|^2 = 1.000
     e =    -5.10340 eV
     psi = 0.128*[#   1]+0.128*[#  10]+0.129*[#  19]+0.128*[#  28]+0.064*[#   2]+
          +0.064*[#  11]+0.064*[#  20]+0.064*[#  29]+0.058*[#   5]+0.058*[#  14]+
          +0.058*[#  23]+0.058*[#  32]+
    |psi|^2 = 0.999
     e =    -4.54174 eV
     psi = 0.217*[#  23]+0.217*[#   5]+0.217*[#  14]+0.217*[#  32]+0.033*[#   1]+
          +0.033*[#  10]+0.033*[#  19]+0.033*[#  28]+
    |psi|^2 = 0.999
     e =    -4.49431 eV
     psi = 0.241*[#  24]+0.241*[#   6]+0.241*[#  15]+0.241*[#  33]+0.005*[#   3]+
          +0.005*[#  12]+0.005*[#  21]+0.005*[#  30]+0.004*[#   7]+0.004*[#  16]+
          +0.004*[#  25]+0.004*[#  34]+
    |psi|^2 = 0.998
     e =    -4.49431 eV
     psi = 0.241*[#  25]+0.241*[#   7]+0.241*[#  16]+0.241*[#  34]+0.005*[#   4]+
          +0.005*[#  13]+0.005*[#  22]+0.005*[#  31]+0.004*[#   6]+0.004*[#  15]+
          +0.004*[#  24]+0.004*[#  33]+
    |psi|^2 = 0.998
     e =    -3.53573 eV
     psi = 0.125*[#   1]+0.125*[#  10]+0.125*[#  19]+0.125*[#  28]+0.121*[#   2]+
          +0.121*[#  11]+0.121*[#  20]+0.121*[#  29]+
    |psi|^2 = 0.988
     e =    -1.05151 eV
     psi = 0.166*[#   2]+0.166*[#  11]+0.166*[#  20]+0.166*[#  29]+0.067*[#   1]+
          +0.067*[#  10]+0.067*[#  19]+0.067*[#  28]+0.013*[#   5]+0.013*[#  14]+
          +0.013*[#  23]+0.013*[#  32]+
    |psi|^2 = 0.984
     e =     0.20544 eV
     psi = 0.190*[#   3]+0.190*[#  12]+0.190*[#  21]+0.190*[#  30]+0.049*[#   4]+
          +0.049*[#  13]+0.049*[#  22]+0.049*[#  31]+0.004*[#   6]+0.004*[#  15]+
          +0.004*[#  24]+0.004*[#  33]+0.001*[#   7]+0.001*[#  16]+0.001*[#  25]+
          +0.001*[#  34]+
    |psi|^2 = 0.976
     e =     0.20544 eV
     psi = 0.190*[#   4]+0.190*[#  13]+0.190*[#  22]+0.190*[#  31]+0.049*[#   3]+
          +0.049*[#  12]+0.049*[#  21]+0.049*[#  30]+0.004*[#   7]+0.004*[#  16]+
          +0.004*[#  25]+0.004*[#  34]+0.001*[#   6]+0.001*[#  15]+0.001*[#  24]+
          +0.001*[#  33]+
    |psi|^2 = 0.976
     e =     1.13069 eV
     psi = 0.141*[#   3]+0.141*[#  12]+0.141*[#  21]+0.141*[#  30]+0.097*[#   4]+
          +0.097*[#  13]+0.097*[#  22]+0.097*[#  31]+0.006*[#   6]+0.006*[#  15]+
          +0.006*[#  24]+0.006*[#  33]+0.004*[#   7]+0.004*[#  16]+0.004*[#  25]+
          +0.004*[#  34]+
    |psi|^2 = 0.991
     e =     1.13069 eV
     psi = 0.141*[#   4]+0.141*[#  13]+0.141*[#  22]+0.141*[#  31]+0.097*[#   3]+
          +0.097*[#  12]+0.097*[#  21]+0.097*[#  30]+0.006*[#   7]+0.006*[#  16]+
          +0.006*[#  25]+0.006*[#  34]+0.004*[#   6]+0.004*[#  15]+0.004*[#  24]+
          +0.004*[#  33]+
    |psi|^2 = 0.991
     e =     1.74370 eV
     psi = 0.119*[#   2]+0.119*[#  11]+0.119*[#  20]+0.119*[#  29]+0.016*[#   1]+
          +0.016*[#  10]+0.016*[#  19]+0.016*[#  28]+
    |psi|^2 = 0.544
     e =     2.28793 eV
     psi = 0.091*[#   2]+0.091*[#  11]+0.091*[#  20]+0.091*[#  29]+0.040*[#   1]+
          +0.040*[#  10]+0.040*[#  19]+0.040*[#  28]+
    |psi|^2 = 0.525
     e =     3.08590 eV
     psi = 
    |psi|^2 = 0.000
     e =     3.35639 eV
     psi = 0.154*[#   4]+0.154*[#  13]+0.154*[#  22]+0.154*[#  31]+0.083*[#   3]+
          +0.083*[#  12]+0.083*[#  21]+0.083*[#  30]+0.003*[#   7]+0.003*[#  16]+
          +0.003*[#  25]+0.003*[#  34]+0.001*[#   6]+0.001*[#  15]+0.001*[#  24]+
          +0.001*[#  33]+
    |psi|^2 = 0.962
     e =     3.35639 eV
     psi = 0.154*[#   3]+0.154*[#  12]+0.154*[#  21]+0.154*[#  30]+0.083*[#   4]+
          +0.083*[#  13]+0.083*[#  22]+0.083*[#  31]+0.003*[#   6]+0.003*[#  15]+
          +0.003*[#  24]+0.003*[#  33]+0.001*[#   7]+0.001*[#  16]+0.001*[#  25]+
          +0.001*[#  34]+
    |psi|^2 = 0.962
     e =     3.62722 eV
     psi = 
    |psi|^2 = 0.000
     e =     4.11729 eV
     psi = 0.044*[#   2]+0.044*[#  11]+0.044*[#  20]+0.044*[#  29]+0.023*[#   1]+
          +0.023*[#  10]+0.023*[#  19]+0.023*[#  28]+
    |psi|^2 = 0.269
     e =     4.68824 eV
     psi = 0.002*[#   3]+0.002*[#  12]+0.002*[#  21]+0.002*[#  30]+
    |psi|^2 = 0.011
     e =     4.68824 eV
     psi = 0.002*[#   4]+0.002*[#  13]+0.002*[#  22]+0.002*[#  31]+
    |psi|^2 = 0.011
     e =     4.88165 eV
     psi = 0.127*[#   1]+0.127*[#  10]+0.127*[#  19]+0.127*[#  28]+0.057*[#   2]+
          +0.057*[#  11]+0.057*[#  20]+0.057*[#  29]+0.018*[#   5]+0.018*[#  14]+
          +0.018*[#  23]+0.018*[#  32]+
    |psi|^2 = 0.808
     e =     4.95200 eV
     psi = 0.160*[#   3]+0.160*[#  12]+0.160*[#  21]+0.160*[#  30]+0.055*[#   4]+
          +0.055*[#  13]+0.055*[#  22]+0.055*[#  31]+
    |psi|^2 = 0.864
     e =     4.95200 eV
     psi = 0.160*[#   4]+0.160*[#  13]+0.160*[#  22]+0.160*[#  31]+0.055*[#   3]+
          +0.055*[#  12]+0.055*[#  21]+0.055*[#  30]+
    |psi|^2 = 0.864

 k =   0.0000000000  0.0000000000  0.3472724063
     e =    -9.19324 eV
     psi = 0.187*[#   5]+0.186*[#  14]+0.186*[#  23]+0.186*[#  32]+0.054*[#   1]+
          +0.054*[#  10]+0.054*[#  19]+0.054*[#  28]+0.009*[#   2]+0.009*[#  11]+
          +0.009*[#  20]+0.009*[#  29]+
    |psi|^2 = 0.998
     e =    -8.79540 eV
     psi = 0.188*[#  23]+0.188*[#  32]+0.188*[#   5]+0.188*[#  14]+0.048*[#   1]+
          +0.048*[#  10]+0.048*[#  19]+0.048*[#  28]+0.013*[#   2]+0.013*[#  11]+
          +0.013*[#  20]+0.013*[#  29]+
    |psi|^2 = 0.998
     e =    -7.23412 eV
     psi = 0.248*[#   6]+0.248*[#  15]+0.248*[#  33]+0.247*[#  24]+0.002*[#   3]+
          +0.002*[#  12]+0.002*[#  21]+0.002*[#  30]+
    |psi|^2 = 0.999
     e =    -7.23412 eV
     psi = 0.248*[#   7]+0.248*[#  16]+0.248*[#  34]+0.247*[#  25]+0.002*[#   4]+
          +0.002*[#  13]+0.002*[#  22]+0.002*[#  31]+
    |psi|^2 = 0.999
     e =    -7.05987 eV
     psi = 0.243*[#  24]+0.242*[#  33]+0.242*[#  15]+0.242*[#   6]+0.004*[#   7]+
          +0.005*[#  16]+0.005*[#  25]+0.005*[#  34]+0.003*[#   3]+0.003*[#  12]+
          +0.003*[#  21]+0.003*[#  30]+
    |psi|^2 = 0.999
     e =    -7.05987 eV
     psi = 0.243*[#  25]+0.242*[#  34]+0.242*[#  16]+0.242*[#   7]+0.004*[#   6]+
          +0.005*[#  15]+0.005*[#  24]+0.005*[#  33]+0.003*[#   4]+0.003*[#  13]+
          +0.003*[#  22]+0.003*[#  31]+
    |psi|^2 = 0.999
     e =    -5.77167 eV
     psi = 0.251*[#   8]+0.250*[#  17]+0.250*[#  35]+0.248*[#  26]+
    |psi|^2 = 0.999
     e =    -5.76989 eV
     psi = 0.251*[#   9]+0.250*[#  18]+0.250*[#  36]+0.248*[#  27]+
    |psi|^2 = 0.999
     e =    -5.72685 eV
     psi = 0.251*[#  26]+0.250*[#  35]+0.250*[#  17]+0.249*[#   8]+
    |psi|^2 = 0.999
     e =    -5.72508 eV
     psi = 0.251*[#  27]+0.250*[#  36]+0.250*[#  18]+0.249*[#   9]+
    |psi|^2 = 0.999
     e =    -5.36094 eV
     psi = 0.146*[#   1]+0.146*[#  10]+0.146*[#  28]+0.146*[#  19]+0.063*[#   5]+
          +0.063*[#  14]+0.063*[#  32]+0.063*[#  23]+0.041*[#  11]+0.042*[#  20]+
          +0.041*[#   2]+0.041*[#  29]+
    |psi|^2 = 1.000
     e =    -5.29831 eV
     psi = 0.251*[#   8]+0.250*[#  17]+0.250*[#  35]+0.249*[#  26]+
    |psi|^2 = 1.000
     e =    -5.29698 eV
     psi = 0.251*[#   9]+0.250*[#  18]+0.250*[#  36]+0.249*[#  27]+
    |psi|^2 = 1.000
     e =    -5.24927 eV
     psi = 0.251*[#  26]+0.250*[#  35]+0.250*[#  17]+0.249*[#   8]+
    |psi|^2 = 1.000
     e =    -5.24790 eV
     psi = 0.251*[#  27]+0.250*[#  36]+0.250*[#  18]+0.249*[#   9]+
    |psi|^2 = 1.000
     e =    -5.24668 eV
     psi = 0.135*[#  19]+0.135*[#  10]+0.135*[#  28]+0.135*[#   1]+0.061*[#  14]+
          +0.061*[#  23]+0.061*[#  32]+0.061*[#   5]+0.054*[#   2]+0.054*[#  11]+
          +0.054*[#  20]+0.054*[#  29]+
    |psi|^2 = 1.000
     e =    -5.05428 eV
     psi = 0.205*[#   6]+0.204*[#  15]+0.204*[#  24]+0.204*[#  33]+0.036*[#   7]+
          +0.036*[#  16]+0.036*[#  25]+0.036*[#  34]+0.007*[#   3]+0.007*[#  12]+
          +0.007*[#  21]+0.007*[#  30]+0.001*[#   4]+0.001*[#  13]+0.001*[#  22]+
          +0.001*[#  31]+
    |psi|^2 = 0.997
     e =    -5.05428 eV
     psi = 0.205*[#   7]+0.204*[#  16]+0.204*[#  25]+0.204*[#  34]+0.036*[#   6]+
          +0.036*[#  15]+0.036*[#  24]+0.036*[#  33]+0.007*[#   4]+0.007*[#  13]+
          +0.007*[#  22]+0.007*[#  31]+0.001*[#   3]+0.001*[#  12]+0.001*[#  21]+
          +0.001*[#  30]+
    |psi|^2 = 0.997
     e =    -4.96723 eV
     psi = 0.237*[#   5]+0.237*[#  14]+0.237*[#  23]+0.237*[#  32]+0.012*[#   1]+
          +0.012*[#  10]+0.012*[#  19]+0.012*[#  28]+
    |psi|^2 = 0.996
     e =    -4.75416 eV
     psi = 0.235*[#  24]+0.234*[#  15]+0.234*[#  33]+0.234*[#   6]+0.008*[#   7]+
          +0.008*[#  16]+0.008*[#  25]+0.008*[#  34]+0.007*[#   3]+0.007*[#  12]+
          +0.007*[#  21]+0.007*[#  30]+
    |psi|^2 = 0.997
     e =    -4.75416 eV
     psi = 0.235*[#  25]+0.234*[#  16]+0.234*[#  34]+0.234*[#   7]+0.008*[#   6]+
          +0.008*[#  15]+0.008*[#  24]+0.008*[#  33]+0.007*[#   4]+0.007*[#  13]+
          +0.007*[#  22]+0.007*[#  31]+
    |psi|^2 = 0.997
     e =    -4.71311 eV
     psi = 0.226*[#  23]+0.225*[#  14]+0.225*[#  32]+0.225*[#   5]+0.024*[#   1]+
          +0.024*[#  10]+0.024*[#  19]+0.024*[#  28]+
    |psi|^2 = 0.998
     e =    -2.81947 eV
     psi = 0.135*[#   2]+0.135*[#  11]+0.135*[#  20]+0.135*[#  29]+0.107*[#   1]+
          +0.107*[#  10]+0.107*[#  19]+0.107*[#  28]+0.004*[#   5]+0.004*[#  14]+
          +0.004*[#  23]+0.004*[#  32]+
    |psi|^2 = 0.983
     e =    -1.96865 eV
     psi = 0.148*[#   2]+0.148*[#  11]+0.148*[#  20]+0.148*[#  29]+0.087*[#   1]+
          +0.087*[#  10]+0.087*[#  19]+0.087*[#  28]+0.011*[#   5]+0.011*[#  14]+
          +0.011*[#  23]+0.011*[#  32]+
    |psi|^2 = 0.982
     e =     0.46524 eV
     psi = 0.121*[#   3]+0.121*[#  12]+0.121*[#  21]+0.121*[#  30]+0.116*[#   4]+
          +0.116*[#  13]+0.116*[#  22]+0.116*[#  31]+0.004*[#   6]+0.004*[#  15]+
          +0.004*[#  24]+0.004*[#  33]+0.004*[#   7]+0.004*[#  16]+0.004*[#  25]+
          +0.004*[#  34]+
    |psi|^2 = 0.981
     e =     0.46524 eV
     psi = 0.121*[#   4]+0.121*[#  13]+0.121*[#  22]+0.121*[#  31]+0.116*[#   3]+
          +0.116*[#  12]+0.116*[#  21]+0.116*[#  30]+0.004*[#   7]+0.004*[#  16]+
          +0.004*[#  25]+0.004*[#  34]+0.004*[#   6]+0.004*[#  15]+0.004*[#  24]+
          +0.004*[#  33]+
    |psi|^2 = 0.981
     e =     0.77754 eV
     psi = 0.211*[#  13]+0.211*[#  22]+0.211*[#   4]+0.211*[#  31]+0.026*[#   3]+
          +0.026*[#  12]+0.026*[#  21]+0.026*[#  30]+0.008*[#   7]+0.008*[#  16]+
          +0.008*[#  25]+0.008*[#  34]+0.001*[#   6]+0.001*[#  15]+0.001*[#  24]+
          +0.001*[#  33]+
    |psi|^2 = 0.986
     e =     0.77754 eV
     psi = 0.211*[#  12]+0.211*[#  21]+0.211*[#   3]+0.211*[#  30]+0.026*[#   4]+
          +0.026*[#  13]+0.026*[#  22]+0.026*[#  31]+0.008*[#   6]+0.008*[#  15]+
          +0.008*[#  24]+0.008*[#  33]+0.001*[#   7]+0.001*[#  16]+0.001*[#  25]+
          +0.001*[#  34]+
    |psi|^2 = 0.986
     e =     1.87964 eV
     psi = 0.111*[#   2]+0.111*[#  11]+0.111*[#  20]+0.111*[#  29]+0.027*[#   1]+
          +0.027*[#  10]+0.027*[#  19]+0.027*[#  28]+
    |psi|^2 = 0.553
     e =     2.06101 eV
     psi = 0.101*[#   2]+0.101*[#  11]+0.101*[#  20]+0.101*[#  29]+0.035*[#   1]+
          +0.035*[#  10]+0.035*[#  19]+0.035*[#  28]+
    |psi|^2 = 0.544
     e =     3.22119 eV
     psi = 
    |psi|^2 = 0.000
     e =     3.40162 eV
     psi = 
    |psi|^2 = 0.000
     e =     3.87933 eV
     psi = 0.142*[#   3]+0.142*[#  12]+0.142*[#  21]+0.142*[#  30]+0.089*[#   4]+
          +0.089*[#  13]+0.089*[#  22]+0.089*[#  31]+0.002*[#   6]+0.002*[#  15]+
          +0.002*[#  24]+0.002*[#  33]+
    |psi|^2 = 0.934
     e =     3.87933 eV
     psi = 0.142*[#   4]+0.142*[#  13]+0.142*[#  22]+0.142*[#  31]+0.089*[#   3]+
          +0.089*[#  12]+0.089*[#  21]+0.089*[#  30]+0.002*[#   7]+0.002*[#  16]+
          +0.002*[#  25]+0.002*[#  34]+
    |psi|^2 = 0.934
     e =     4.41721 eV
     psi = 0.156*[#   4]+0.156*[#  13]+0.156*[#  22]+0.156*[#  31]+0.067*[#   3]+
          +0.067*[#  12]+0.067*[#  21]+0.067*[#  30]+0.001*[#   7]+0.001*[#  16]+
          +0.001*[#  25]+0.001*[#  34]+
    |psi|^2 = 0.899
     e =     4.41721 eV
     psi = 0.156*[#   3]+0.156*[#  12]+0.156*[#  21]+0.156*[#  30]+0.067*[#   4]+
          +0.067*[#  13]+0.067*[#  22]+0.067*[#  31]+0.001*[#   6]+0.001*[#  15]+
          +0.001*[#  24]+0.001*[#  33]+
    |psi|^2 = 0.899
     e =     4.62601 eV
     psi = 0.031*[#   2]+0.031*[#  11]+0.031*[#  20]+0.031*[#  29]+0.014*[#   1]+
          +0.014*[#  10]+0.014*[#  19]+0.014*[#  28]+
    |psi|^2 = 0.182
     e =     4.84632 eV
     psi = 0.001*[#   4]+0.001*[#  13]+0.001*[#  22]+0.001*[#  31]+0.001*[#   3]+
    |psi|^2 = 0.009
     e =     4.84632 eV
     psi = 0.001*[#   3]+0.001*[#  12]+0.001*[#  21]+0.001*[#  30]+0.001*[#   4]+
    |psi|^2 = 0.009
     e =     5.05433 eV
     psi = 0.001*[#   3]+0.001*[#  12]+0.001*[#  21]+0.001*[#  30]+
    |psi|^2 = 0.007

 k =   0.0000000000  0.0000000000 -0.3472724063
     e =    -9.19324 eV
     psi = 0.187*[#   5]+0.186*[#  14]+0.186*[#  23]+0.186*[#  32]+0.054*[#   1]+
          +0.054*[#  10]+0.054*[#  19]+0.054*[#  28]+0.009*[#   2]+0.009*[#  11]+
          +0.009*[#  20]+0.009*[#  29]+
    |psi|^2 = 0.998
     e =    -8.79540 eV
     psi = 0.188*[#  23]+0.188*[#  32]+0.188*[#   5]+0.188*[#  14]+0.048*[#   1]+
          +0.048*[#  10]+0.048*[#  19]+0.048*[#  28]+0.013*[#   2]+0.013*[#  11]+
          +0.013*[#  20]+0.013*[#  29]+
    |psi|^2 = 0.998
     e =    -7.23412 eV
     psi = 0.243*[#   6]+0.242*[#  15]+0.242*[#  33]+0.242*[#  24]+0.006*[#   7]+
          +0.006*[#  16]+0.006*[#  25]+0.006*[#  34]+0.002*[#   3]+0.002*[#  12]+
          +0.002*[#  21]+0.002*[#  30]+
    |psi|^2 = 0.999
     e =    -7.23412 eV
     psi = 0.243*[#   7]+0.242*[#  16]+0.242*[#  34]+0.242*[#  25]+0.006*[#   6]+
          +0.006*[#  15]+0.006*[#  24]+0.006*[#  33]+0.002*[#   4]+0.002*[#  13]+
          +0.002*[#  22]+0.002*[#  31]+
    |psi|^2 = 0.999
     e =    -7.05987 eV
     psi = 0.245*[#  24]+0.244*[#  33]+0.244*[#  15]+0.244*[#   6]+0.003*[#   3]+
          +0.003*[#  12]+0.003*[#  21]+0.003*[#  30]+0.003*[#   7]+0.003*[#  16]+
          +0.003*[#  25]+0.003*[#  34]+
    |psi|^2 = 0.999
     e =    -7.05987 eV
     psi = 0.245*[#  25]+0.244*[#  34]+0.244*[#  16]+0.244*[#   7]+0.003*[#   4]+
          +0.003*[#  13]+0.003*[#  22]+0.003*[#  31]+0.003*[#   6]+0.003*[#  15]+
          +0.003*[#  24]+0.003*[#  33]+
    |psi|^2 = 0.999
     e =    -5.77167 eV
     psi = 0.251*[#   8]+0.250*[#  17]+0.250*[#  35]+0.248*[#  26]+
    |psi|^2 = 0.999
     e =    -5.76989 eV
     psi = 0.251*[#   9]+0.250*[#  18]+0.250*[#  36]+0.248*[#  27]+
    |psi|^2 = 0.999
     e =    -5.72685 eV
     psi = 0.251*[#  26]+0.250*[#  35]+0.250*[#  17]+0.249*[#   8]+
    |psi|^2 = 0.999
     e =    -5.72508 eV
     psi = 0.251*[#  27]+0.250*[#  36]+0.250*[#  18]+0.249*[#   9]+
    |psi|^2 = 0.999
     e =    -5.36094 eV
     psi = 0.146*[#   1]+0.146*[#  10]+0.146*[#  28]+0.146*[#  19]+0.063*[#   5]+
          +0.063*[#  14]+0.063*[#  32]+0.063*[#  23]+0.041*[#  11]+0.042*[#  20]+
          +0.041*[#   2]+0.041*[#  29]+
    |psi|^2 = 1.000
     e =    -5.29831 eV
     psi = 0.251*[#   8]+0.250*[#  17]+0.250*[#  35]+0.249*[#  26]+
    |psi|^2 = 1.000
     e =    -5.29698 eV
     psi = 0.251*[#   9]+0.250*[#  18]+0.250*[#  36]+0.249*[#  27]+
    |psi|^2 = 1.000
     e =    -5.24927 eV
     psi = 0.251*[#  26]+0.250*[#  35]+0.250*[#  17]+0.249*[#   8]+
    |psi|^2 = 1.000
     e =    -5.24790 eV
     psi = 0.251*[#  27]+0.250*[#  36]+0.250*[#  18]+0.249*[#   9]+
    |psi|^2 = 1.000
     e =    -5.24668 eV
     psi = 0.135*[#  19]+0.135*[#  10]+0.135*[#  28]+0.135*[#   1]+0.061*[#  14]+
          +0.061*[#  23]+0.061*[#  32]+0.061*[#   5]+0.054*[#   2]+0.054*[#  11]+
          +0.054*[#  20]+0.054*[#  29]+
    |psi|^2 = 1.000
     e =    -5.05428 eV
     psi = 0.239*[#   6]+0.239*[#  15]+0.239*[#  33]+0.238*[#  24]+0.009*[#   3]+
          +0.009*[#  12]+0.009*[#  21]+0.009*[#  30]+0.002*[#   7]+0.002*[#  16]+
          +0.002*[#  25]+0.002*[#  34]+
    |psi|^2 = 0.997
     e =    -5.05428 eV
     psi = 0.239*[#   7]+0.239*[#  16]+0.239*[#  34]+0.238*[#  25]+0.009*[#   4]+
          +0.009*[#  13]+0.009*[#  22]+0.009*[#  31]+0.002*[#   6]+0.002*[#  15]+
          +0.002*[#  24]+0.002*[#  33]+
    |psi|^2 = 0.997
     e =    -4.96723 eV
     psi = 0.237*[#   5]+0.237*[#  14]+0.237*[#  23]+0.237*[#  32]+0.012*[#   1]+
          +0.012*[#  10]+0.012*[#  19]+0.012*[#  28]+
    |psi|^2 = 0.996
     e =    -4.75416 eV
     psi = 0.238*[#  24]+0.238*[#  15]+0.238*[#  33]+0.238*[#   6]+0.007*[#   3]+
          +0.007*[#  12]+0.007*[#  21]+0.007*[#  30]+0.004*[#   7]+0.004*[#  16]+
          +0.004*[#  25]+0.004*[#  34]+
    |psi|^2 = 0.997
     e =    -4.75416 eV
     psi = 0.238*[#  25]+0.238*[#  16]+0.238*[#  34]+0.238*[#   7]+0.007*[#   4]+
          +0.007*[#  13]+0.007*[#  22]+0.007*[#  31]+0.004*[#   6]+0.004*[#  15]+
          +0.004*[#  24]+0.004*[#  33]+
    |psi|^2 = 0.997
     e =    -4.71311 eV
     psi = 0.226*[#  23]+0.225*[#  14]+0.225*[#  32]+0.225*[#   5]+0.024*[#   1]+
          +0.024*[#  10]+0.024*[#  19]+0.024*[#  28]+
    |psi|^2 = 0.998
     e =    -2.81947 eV
     psi = 0.135*[#   2]+0.135*[#  11]+0.135*[#  20]+0.135*[#  29]+0.107*[#   1]+
          +0.107*[#  10]+0.107*[#  19]+0.107*[#  28]+0.004*[#   5]+0.004*[#  14]+
          +0.004*[#  23]+0.004*[#  32]+
    |psi|^2 = 0.983
     e =    -1.96865 eV
     psi = 0.148*[#   2]+0.148*[#  11]+0.148*[#  20]+0.148*[#  29]+0.087*[#   1]+
          +0.087*[#  10]+0.087*[#  19]+0.087*[#  28]+0.011*[#   5]+0.011*[#  14]+
          +0.011*[#  23]+0.011*[#  32]+
    |psi|^2 = 0.982
     e =     0.46524 eV
     psi = 0.170*[#   3]+0.170*[#  12]+0.170*[#  21]+0.170*[#  30]+0.068*[#   4]+
          +0.068*[#  13]+0.068*[#  22]+0.068*[#  31]+0.005*[#   6]+0.005*[#  15]+
          +0.005*[#  24]+0.005*[#  33]+0.002*[#   7]+0.002*[#  16]+0.002*[#  25]+
          +0.002*[#  34]+
    |psi|^2 = 0.981
     e =     0.46524 eV
     psi = 0.170*[#   4]+0.170*[#  13]+0.170*[#  22]+0.170*[#  31]+0.068*[#   3]+
          +0.068*[#  12]+0.068*[#  21]+0.068*[#  30]+0.005*[#   7]+0.005*[#  16]+
          +0.005*[#  25]+0.005*[#  34]+0.002*[#   6]+0.002*[#  15]+0.002*[#  24]+
          +0.002*[#  33]+
    |psi|^2 = 0.981
     e =     0.77754 eV
     psi = 0.190*[#   4]+0.190*[#  13]+0.190*[#  22]+0.190*[#  31]+0.047*[#   3]+
          +0.047*[#  12]+0.047*[#  21]+0.047*[#  30]+0.007*[#   7]+0.007*[#  16]+
          +0.007*[#  25]+0.007*[#  34]+0.002*[#   6]+0.002*[#  15]+0.002*[#  24]+
          +0.002*[#  33]+
    |psi|^2 = 0.986
     e =     0.77754 eV
     psi = 0.190*[#   3]+0.190*[#  12]+0.190*[#  21]+0.190*[#  30]+0.047*[#   4]+
          +0.047*[#  13]+0.047*[#  22]+0.047*[#  31]+0.007*[#   6]+0.007*[#  15]+
          +0.007*[#  24]+0.007*[#  33]+0.002*[#   7]+0.002*[#  16]+0.002*[#  25]+
          +0.002*[#  34]+
    |psi|^2 = 0.986
     e =     1.87964 eV
     psi = 0.111*[#   2]+0.111*[#  11]+0.111*[#  20]+0.111*[#  29]+0.027*[#   1]+
          +0.027*[#  10]+0.027*[#  19]+0.027*[#  28]+
    |psi|^2 = 0.553
     e =     2.06101 eV
     psi = 0.101*[#   2]+0.101*[#  11]+0.101*[#  20]+0.101*[#  29]+0.035*[#   1]+
          +0.035*[#  10]+0.035*[#  19]+0.035*[#  28]+
    |psi|^2 = 0.544
     e =     3.22119 eV
     psi = 
    |psi|^2 = 0.000
     e =     3.40162 eV
     psi = 
    |psi|^2 = 0.000
     e =     3.87933 eV
     psi = 0.175*[#   4]+0.175*[#  13]+0.175*[#  22]+0.175*[#  31]+0.056*[#   3]+
          +0.056*[#  12]+0.056*[#  21]+0.056*[#  30]+0.002*[#   7]+0.002*[#  16]+
          +0.002*[#  25]+0.002*[#  34]+
    |psi|^2 = 0.934
     e =     3.87933 eV
     psi = 0.175*[#   3]+0.175*[#  12]+0.175*[#  21]+0.175*[#  30]+0.056*[#   4]+
          +0.056*[#  13]+0.056*[#  22]+0.056*[#  31]+0.002*[#   6]+0.002*[#  15]+
          +0.002*[#  24]+0.002*[#  33]+
    |psi|^2 = 0.934
     e =     4.41721 eV
     psi = 0.132*[#   4]+0.132*[#  13]+0.132*[#  22]+0.132*[#  31]+0.091*[#   3]+
          +0.091*[#  12]+0.091*[#  21]+0.091*[#  30]+
    |psi|^2 = 0.899
     e =     4.41721 eV
     psi = 0.132*[#   3]+0.132*[#  12]+0.132*[#  21]+0.132*[#  30]+0.091*[#   4]+
          +0.091*[#  13]+0.091*[#  22]+0.091*[#  31]+
    |psi|^2 = 0.899
     e =     4.62601 eV
     psi = 0.031*[#   2]+0.031*[#  11]+0.031*[#  20]+0.031*[#  29]+0.014*[#   1]+
          +0.014*[#  10]+0.014*[#  19]+0.014*[#  28]+
    |psi|^2 = 0.182
     e =     4.84632 eV
     psi = 0.002*[#   4]+0.002*[#  13]+0.002*[#  22]+0.002*[#  31]+
    |psi|^2 = 0.009
     e =     4.84632 eV
     psi = 0.002*[#   3]+0.002*[#  12]+0.002*[#  21]+0.002*[#  30]+
    |psi|^2 = 0.009
     e =     5.05433 eV
     psi = 
    |psi|^2 = 0.007

 k =   0.0000000000  0.0000000000 -0.2480517188
     e =    -9.49678 eV
     psi = 0.185*[#   5]+0.185*[#  14]+0.185*[#  23]+0.185*[#  32]+0.060*[#   1]+
          +0.060*[#  10]+0.059*[#  19]+0.059*[#  28]+0.005*[#   2]+0.005*[#  11]+
          +0.005*[#  20]+0.005*[#  29]+
    |psi|^2 = 0.998
     e =    -8.31030 eV
     psi = 0.192*[#   5]+0.192*[#  14]+0.192*[#  23]+0.192*[#  32]+0.041*[#   1]+
          +0.041*[#  10]+0.041*[#  19]+0.041*[#  28]+0.016*[#   2]+0.016*[#  11]+
          +0.016*[#  20]+0.016*[#  29]+
    |psi|^2 = 0.997
     e =    -7.36753 eV
     psi = 0.204*[#   7]+0.204*[#  16]+0.204*[#  25]+0.204*[#  34]+0.045*[#   6]+
          +0.045*[#  15]+0.045*[#  24]+0.045*[#  33]+
    |psi|^2 = 0.999
     e =    -7.36753 eV
     psi = 0.204*[#   6]+0.204*[#  15]+0.204*[#  24]+0.204*[#  33]+0.045*[#   7]+
          +0.045*[#  16]+0.045*[#  25]+0.045*[#  34]+
    |psi|^2 = 0.999
     e =    -6.84702 eV
     psi = 0.134*[#   6]+0.134*[#  15]+0.134*[#  24]+0.134*[#  33]+0.111*[#   7]+
          +0.111*[#  16]+0.111*[#  25]+0.111*[#  34]+0.002*[#   3]+0.002*[#  12]+
          +0.002*[#  21]+0.002*[#  30]+0.002*[#   4]+0.002*[#  13]+0.002*[#  22]+
          +0.002*[#  31]+
    |psi|^2 = 0.999
     e =    -6.84702 eV
     psi = 0.134*[#   7]+0.134*[#  16]+0.134*[#  25]+0.134*[#  34]+0.111*[#   6]+
          +0.111*[#  15]+0.111*[#  24]+0.111*[#  33]+0.002*[#   4]+0.002*[#  13]+
          +0.002*[#  22]+0.002*[#  31]+0.002*[#   3]+0.002*[#  12]+0.002*[#  21]+
          +0.002*[#  30]+
    |psi|^2 = 0.999
     e =    -5.80663 eV
     psi = 0.250*[#   8]+0.250*[#  17]+0.250*[#  35]+0.249*[#  26]+
    |psi|^2 = 0.999
     e =    -5.80466 eV
     psi = 0.250*[#   9]+0.250*[#  18]+0.250*[#  36]+0.249*[#  27]+
    |psi|^2 = 0.999
     e =    -5.67365 eV
     psi = 0.250*[#  26]+0.250*[#  35]+0.250*[#  17]+0.249*[#   8]+
    |psi|^2 = 0.999
     e =    -5.67194 eV
     psi = 0.250*[#  27]+0.250*[#  36]+0.250*[#  18]+0.249*[#   9]+
    |psi|^2 = 0.999
     e =    -5.44679 eV
     psi = 0.159*[#   1]+0.159*[#  10]+0.159*[#  19]+0.159*[#  28]+0.064*[#   5]+
          +0.064*[#  14]+0.064*[#  32]+0.064*[#  23]+0.027*[#   2]+0.027*[#  11]+
          +0.027*[#  20]+0.027*[#  29]+
    |psi|^2 = 1.000
     e =    -5.37499 eV
     psi = 0.166*[#   6]+0.166*[#  15]+0.166*[#  24]+0.166*[#  33]+0.074*[#   7]+
          +0.074*[#  16]+0.074*[#  25]+0.074*[#  34]+0.006*[#   3]+0.006*[#  12]+
          +0.006*[#  21]+0.006*[#  30]+0.003*[#   4]+0.003*[#  13]+0.003*[#  22]+
          +0.003*[#  31]+
    |psi|^2 = 0.997
     e =    -5.37499 eV
     psi = 0.166*[#   7]+0.166*[#  16]+0.166*[#  25]+0.166*[#  34]+0.074*[#   6]+
          +0.074*[#  15]+0.074*[#  24]+0.074*[#  33]+0.006*[#   4]+0.006*[#  13]+
          +0.006*[#  22]+0.006*[#  31]+0.003*[#   3]+0.003*[#  12]+0.003*[#  21]+
          +0.003*[#  30]+
    |psi|^2 = 0.997
     e =    -5.35516 eV
     psi = 0.250*[#   8]+0.250*[#  17]+0.250*[#  35]+0.250*[#  26]+
    |psi|^2 = 1.000
     e =    -5.35385 eV
     psi = 0.250*[#   9]+0.250*[#  18]+0.250*[#  36]+0.250*[#  27]+
    |psi|^2 = 1.000
     e =    -5.34043 eV
     psi = 0.244*[#  14]+0.244*[#  23]+0.244*[#  32]+0.244*[#   5]+0.003*[#   2]+
          +0.003*[#  11]+0.003*[#  20]+0.003*[#  29]+0.002*[#   1]+0.002*[#  10]+
          +0.002*[#  19]+0.002*[#  28]+
    |psi|^2 = 0.994
     e =    -5.21091 eV
     psi = 0.250*[#  26]+0.250*[#  35]+0.250*[#  17]+0.249*[#   8]+
    |psi|^2 = 1.000
     e =    -5.20934 eV
     psi = 0.250*[#  27]+0.250*[#  36]+0.250*[#  18]+0.249*[#   9]+
    |psi|^2 = 1.000
     e =    -5.10340 eV
     psi = 0.128*[#   1]+0.128*[#  10]+0.129*[#  19]+0.128*[#  28]+0.064*[#   2]+
          +0.064*[#  11]+0.064*[#  20]+0.064*[#  29]+0.058*[#   5]+0.058*[#  14]+
          +0.058*[#  23]+0.058*[#  32]+
    |psi|^2 = 0.999
     e =    -4.54174 eV
     psi = 0.217*[#  23]+0.217*[#   5]+0.217*[#  14]+0.217*[#  32]+0.033*[#   1]+
          +0.033*[#  10]+0.033*[#  19]+0.033*[#  28]+
    |psi|^2 = 0.999
     e =    -4.49431 eV
     psi = 0.244*[#  24]+0.244*[#   6]+0.244*[#  15]+0.244*[#  33]+0.005*[#   3]+
          +0.005*[#  12]+0.005*[#  21]+0.005*[#  30]+
    |psi|^2 = 0.998
     e =    -4.49431 eV
     psi = 0.244*[#  25]+0.244*[#   7]+0.244*[#  16]+0.244*[#  34]+0.005*[#   4]+
          +0.005*[#  13]+0.005*[#  22]+0.005*[#  31]+
    |psi|^2 = 0.998
     e =    -3.53573 eV
     psi = 0.125*[#   1]+0.125*[#  10]+0.125*[#  19]+0.125*[#  28]+0.121*[#   2]+
          +0.121*[#  11]+0.121*[#  20]+0.121*[#  29]+
    |psi|^2 = 0.988
     e =    -1.05151 eV
     psi = 0.166*[#   2]+0.166*[#  11]+0.166*[#  20]+0.166*[#  29]+0.067*[#   1]+
          +0.067*[#  10]+0.067*[#  19]+0.067*[#  28]+0.013*[#   5]+0.013*[#  14]+
          +0.013*[#  23]+0.013*[#  32]+
    |psi|^2 = 0.984
     e =     0.20544 eV
     psi = 0.203*[#   3]+0.203*[#  12]+0.203*[#  21]+0.203*[#  30]+0.036*[#   4]+
          +0.036*[#  13]+0.036*[#  22]+0.036*[#  31]+0.004*[#   6]+0.004*[#  15]+
          +0.004*[#  24]+0.004*[#  33]+
    |psi|^2 = 0.976
     e =     0.20544 eV
     psi = 0.203*[#   4]+0.203*[#  13]+0.203*[#  22]+0.203*[#  31]+0.036*[#   3]+
          +0.036*[#  12]+0.036*[#  21]+0.036*[#  30]+0.004*[#   7]+0.004*[#  16]+
          +0.004*[#  25]+0.004*[#  34]+
    |psi|^2 = 0.976
     e =     1.13069 eV
     psi = 0.130*[#   4]+0.130*[#  13]+0.130*[#  22]+0.130*[#  31]+0.108*[#   3]+
          +0.108*[#  12]+0.108*[#  21]+0.108*[#  30]+0.005*[#   7]+0.005*[#  16]+
          +0.005*[#  25]+0.005*[#  34]+0.004*[#   6]+0.004*[#  15]+0.004*[#  24]+
          +0.004*[#  33]+
    |psi|^2 = 0.991
     e =     1.13069 eV
     psi = 0.130*[#   3]+0.130*[#  12]+0.130*[#  21]+0.130*[#  30]+0.108*[#   4]+
          +0.108*[#  13]+0.108*[#  22]+0.108*[#  31]+0.005*[#   6]+0.005*[#  15]+
          +0.005*[#  24]+0.005*[#  33]+0.004*[#   7]+0.004*[#  16]+0.004*[#  25]+
          +0.004*[#  34]+
    |psi|^2 = 0.991
     e =     1.74370 eV
     psi = 0.119*[#   2]+0.119*[#  11]+0.119*[#  20]+0.119*[#  29]+0.016*[#   1]+
          +0.016*[#  10]+0.016*[#  19]+0.016*[#  28]+
    |psi|^2 = 0.544
     e =     2.28793 eV
     psi = 0.091*[#   2]+0.091*[#  11]+0.091*[#  20]+0.091*[#  29]+0.040*[#   1]+
          +0.040*[#  10]+0.040*[#  19]+0.040*[#  28]+
    |psi|^2 = 0.525
     e =     3.08590 eV
     psi = 
    |psi|^2 = 0.000
     e =     3.35639 eV
     psi = 0.120*[#   4]+0.120*[#  13]+0.120*[#  22]+0.120*[#  31]+0.116*[#   3]+
          +0.116*[#  12]+0.116*[#  21]+0.116*[#  30]+0.002*[#   6]+0.002*[#   7]+
          +0.002*[#  15]+0.002*[#  16]+0.002*[#  24]+0.002*[#  25]+0.002*[#  33]+
          +0.002*[#  34]+
    |psi|^2 = 0.962
     e =     3.35639 eV
     psi = 0.120*[#   3]+0.120*[#  12]+0.120*[#  21]+0.120*[#  30]+0.116*[#   4]+
          +0.116*[#  13]+0.116*[#  22]+0.116*[#  31]+0.002*[#   6]+0.002*[#   7]+
          +0.002*[#  15]+0.002*[#  16]+0.002*[#  24]+0.002*[#  25]+0.002*[#  33]+
          +0.002*[#  34]+
    |psi|^2 = 0.962
     e =     3.62722 eV
     psi = 
    |psi|^2 = 0.000
     e =     4.11729 eV
     psi = 0.044*[#   2]+0.044*[#  11]+0.044*[#  20]+0.044*[#  29]+0.023*[#   1]+
          +0.023*[#  10]+0.023*[#  19]+0.023*[#  28]+
    |psi|^2 = 0.269
     e =     4.68824 eV
     psi = 0.002*[#   3]+0.002*[#  12]+0.002*[#  21]+0.002*[#  30]+0.001*[#   4]+
          +0.001*[#  13]+0.001*[#  22]+0.001*[#  31]+
    |psi|^2 = 0.011
     e =     4.68824 eV
     psi = 0.002*[#   4]+0.002*[#  13]+0.002*[#  22]+0.002*[#  31]+0.001*[#   3]+
          +0.001*[#  12]+0.001*[#  21]+0.001*[#  30]+
    |psi|^2 = 0.011
     e =     4.88165 eV
     psi = 0.127*[#   1]+0.127*[#  10]+0.127*[#  19]+0.127*[#  28]+0.057*[#   2]+
          +0.057*[#  11]+0.057*[#  20]+0.057*[#  29]+0.018*[#   5]+0.018*[#  14]+
          +0.018*[#  23]+0.018*[#  32]+
    |psi|^2 = 0.808
     e =     4.95200 eV
     psi = 0.109*[#   4]+0.109*[#  13]+0.109*[#  22]+0.109*[#  31]+0.106*[#   3]+
          +0.106*[#  12]+0.106*[#  21]+0.106*[#  30]+
    |psi|^2 = 0.864
     e =     4.95200 eV
     psi = 0.109*[#   3]+0.109*[#  12]+0.109*[#  21]+0.109*[#  30]+0.106*[#   4]+
          +0.106*[#  13]+0.106*[#  22]+0.106*[#  31]+
    |psi|^2 = 0.864

 k =   0.0000000000  0.0000000000 -0.1488310313
     e =    -9.70155 eV
     psi = 0.185*[#   5]+0.185*[#  14]+0.185*[#  23]+0.185*[#  32]+0.063*[#   1]+
          +0.063*[#  10]+0.063*[#  19]+0.063*[#  28]+0.001*[#   2]+0.001*[#  11]+
          +0.001*[#  20]+0.001*[#  29]+
    |psi|^2 = 0.998
     e =    -7.74877 eV
     psi = 0.197*[#   5]+0.197*[#  14]+0.197*[#  23]+0.197*[#  32]+0.033*[#   1]+
          +0.033*[#  10]+0.033*[#  19]+0.033*[#  28]+0.018*[#   2]+0.018*[#  11]+
          +0.018*[#  20]+0.018*[#  29]+
    |psi|^2 = 0.996
     e =    -7.45728 eV
     psi = 0.155*[#   6]+0.154*[#  15]+0.154*[#  24]+0.154*[#  33]+0.095*[#   7]+
          +0.095*[#  16]+0.095*[#  25]+0.095*[#  34]+
    |psi|^2 = 0.999
     e =    -7.45728 eV
     psi = 0.155*[#   7]+0.154*[#  16]+0.154*[#  25]+0.154*[#  34]+0.095*[#   6]+
          +0.095*[#  15]+0.095*[#  24]+0.095*[#  33]+
    |psi|^2 = 0.999
     e =    -6.59910 eV
     psi = 0.229*[#   6]+0.229*[#  15]+0.229*[#  24]+0.229*[#  33]+0.015*[#   7]+
          +0.015*[#  16]+0.015*[#  25]+0.015*[#  34]+0.005*[#   3]+0.005*[#  12]+
          +0.005*[#  21]+0.005*[#  30]+
    |psi|^2 = 0.998
     e =    -6.59910 eV
     psi = 0.229*[#   7]+0.229*[#  16]+0.229*[#  25]+0.229*[#  34]+0.015*[#   6]+
          +0.015*[#  15]+0.015*[#  24]+0.015*[#  33]+0.005*[#   4]+0.005*[#  13]+
          +0.005*[#  22]+0.005*[#  31]+
    |psi|^2 = 0.998
     e =    -5.85774 eV
     psi = 0.237*[#   5]+0.237*[#  14]+0.237*[#  23]+0.237*[#  32]+0.009*[#   2]+
          +0.009*[#  11]+0.009*[#  20]+0.009*[#  29]+0.002*[#   1]+0.002*[#  10]+
          +0.002*[#  19]+0.002*[#  28]+
    |psi|^2 = 0.992
     e =    -5.83070 eV
     psi = 0.250*[#   8]+0.250*[#  17]+0.250*[#  35]+0.249*[#  26]+
    |psi|^2 = 0.999
     e =    -5.82856 eV
     psi = 0.250*[#   9]+0.250*[#  18]+0.250*[#  36]+0.249*[#  27]+
    |psi|^2 = 0.999
     e =    -5.70093 eV
     psi = 0.145*[#   6]+0.145*[#  15]+0.145*[#  24]+0.145*[#  33]+0.095*[#   7]+
          +0.095*[#  16]+0.095*[#  25]+0.095*[#  34]+0.005*[#   3]+0.005*[#  12]+
          +0.005*[#  21]+0.005*[#  30]+0.004*[#   4]+0.004*[#  13]+0.004*[#  22]+
          +0.004*[#  31]+
    |psi|^2 = 0.997
     e =    -5.70093 eV
     psi = 0.145*[#   7]+0.145*[#  16]+0.145*[#  25]+0.145*[#  34]+0.095*[#   6]+
          +0.095*[#  15]+0.095*[#  24]+0.095*[#  33]+0.005*[#   4]+0.005*[#  13]+
          +0.005*[#  22]+0.005*[#  31]+0.004*[#   3]+0.004*[#  12]+0.004*[#  21]+
          +0.004*[#  30]+
    |psi|^2 = 0.997
     e =    -5.61367 eV
     psi = 0.250*[#  17]+0.250*[#  26]+0.250*[#  35]+0.250*[#   8]+
    |psi|^2 = 0.999
     e =    -5.61216 eV
     psi = 0.250*[#  18]+0.250*[#  27]+0.250*[#  36]+0.250*[#   9]+
    |psi|^2 = 0.999
     e =    -5.50425 eV
     psi = 0.174*[#   1]+0.174*[#  10]+0.174*[#  19]+0.174*[#  28]+0.064*[#   5]+
          +0.064*[#  14]+0.064*[#  23]+0.064*[#  32]+0.012*[#   2]+0.012*[#  11]+
          +0.012*[#  20]+0.012*[#  29]+
    |psi|^2 = 1.000
     e =    -5.41764 eV
     psi = 0.250*[#   8]+0.250*[#  17]+0.250*[#  26]+0.250*[#  35]+
    |psi|^2 = 0.999
     e =    -5.41632 eV
     psi = 0.250*[#   9]+0.250*[#  18]+0.250*[#  27]+0.250*[#  36]+
    |psi|^2 = 0.999
     e =    -5.18412 eV
     psi = 0.250*[#  26]+0.250*[#  35]+0.250*[#  17]+0.250*[#   8]+
    |psi|^2 = 1.000
     e =    -5.18240 eV
     psi = 0.250*[#  27]+0.250*[#  36]+0.250*[#  18]+0.250*[#   9]+
    |psi|^2 = 1.000
     e =    -4.92857 eV
     psi = 0.126*[#   1]+0.126*[#  10]+0.126*[#  19]+0.126*[#  28]+0.072*[#   2]+
          +0.072*[#  11]+0.072*[#  20]+0.072*[#  29]+0.052*[#   5]+0.052*[#  14]+
          +0.052*[#  23]+0.052*[#  32]+
    |psi|^2 = 0.999
     e =    -4.43364 eV
     psi = 0.212*[#  14]+0.212*[#  23]+0.212*[#   5]+0.212*[#  32]+0.038*[#   1]+
          +0.038*[#  10]+0.038*[#  19]+0.038*[#  28]+
    |psi|^2 = 1.000
     e =    -4.29955 eV
     psi = 0.247*[#  24]+0.247*[#   6]+0.247*[#  15]+0.247*[#  33]+0.002*[#   3]+
          +0.002*[#  12]+0.002*[#  21]+0.002*[#  30]+
    |psi|^2 = 0.999
     e =    -4.29955 eV
     psi = 0.247*[#  16]+0.247*[#  25]+0.247*[#   7]+0.247*[#  34]+0.002*[#   4]+
          +0.002*[#  13]+0.002*[#  22]+0.002*[#  31]+
    |psi|^2 = 0.999
     e =    -4.06933 eV
     psi = 0.133*[#   1]+0.133*[#  10]+0.133*[#  19]+0.133*[#  28]+0.106*[#   2]+
          +0.106*[#  11]+0.106*[#  20]+0.106*[#  29]+0.010*[#   5]+0.010*[#  14]+
          +0.010*[#  23]+0.010*[#  32]+
    |psi|^2 = 0.993
     e =    -0.14792 eV
     psi = 0.193*[#   2]+0.193*[#  11]+0.193*[#  20]+0.193*[#  29]+0.043*[#   1]+
          +0.043*[#  10]+0.043*[#  19]+0.043*[#  28]+0.010*[#   5]+0.010*[#  14]+
          +0.010*[#  23]+0.010*[#  32]+
    |psi|^2 = 0.986
     e =     0.01493 eV
     psi = 0.164*[#   3]+0.164*[#  12]+0.164*[#  21]+0.164*[#  30]+0.077*[#   4]+
          +0.077*[#  13]+0.077*[#  22]+0.077*[#  31]+0.002*[#   6]+0.002*[#  15]+
          +0.002*[#  24]+0.002*[#  33]+
    |psi|^2 = 0.972
     e =     0.01493 eV
     psi = 0.164*[#   4]+0.164*[#  13]+0.164*[#  22]+0.164*[#  31]+0.077*[#   3]+
          +0.077*[#  12]+0.077*[#  21]+0.077*[#  30]+0.002*[#   7]+0.002*[#  16]+
          +0.002*[#  25]+0.002*[#  34]+
    |psi|^2 = 0.972
     e =     1.51784 eV
     psi = 0.226*[#   4]+0.226*[#  13]+0.226*[#  22]+0.226*[#  31]+0.014*[#   3]+
          +0.014*[#  12]+0.014*[#  21]+0.014*[#  30]+0.009*[#   7]+0.009*[#  16]+
          +0.009*[#  25]+0.009*[#  34]+
    |psi|^2 = 0.993
     e =     1.51784 eV
     psi = 0.226*[#   3]+0.226*[#  12]+0.226*[#  21]+0.226*[#  30]+0.014*[#   4]+
          +0.014*[#  13]+0.014*[#  22]+0.014*[#  31]+0.009*[#   6]+0.009*[#  15]+
          +0.009*[#  24]+0.009*[#  33]+
    |psi|^2 = 0.993
     e =     1.65311 eV
     psi = 0.114*[#   2]+0.114*[#  11]+0.114*[#  20]+0.114*[#  29]+0.006*[#   1]+
          +0.006*[#  10]+0.006*[#  19]+0.006*[#  28]+
    |psi|^2 = 0.482
     e =     2.56061 eV
     psi = 0.082*[#   2]+0.082*[#  11]+0.082*[#  20]+0.082*[#  29]+0.042*[#   1]+
          +0.042*[#  10]+0.042*[#  19]+0.042*[#  28]+
    |psi|^2 = 0.497
     e =     2.85614 eV
     psi = 0.158*[#   3]+0.158*[#  12]+0.158*[#  21]+0.158*[#  30]+0.081*[#   4]+
          +0.081*[#  13]+0.081*[#  22]+0.081*[#  31]+0.004*[#   6]+0.004*[#  15]+
          +0.004*[#  24]+0.004*[#  33]+0.002*[#   7]+0.002*[#  16]+0.002*[#  25]+
          +0.002*[#  34]+
    |psi|^2 = 0.980
     e =     2.85614 eV
     psi = 0.158*[#   4]+0.158*[#  13]+0.158*[#  22]+0.158*[#  31]+0.081*[#   3]+
          +0.081*[#  12]+0.081*[#  21]+0.081*[#  30]+0.004*[#   7]+0.004*[#  16]+
          +0.004*[#  25]+0.004*[#  34]+0.002*[#   6]+0.002*[#  15]+0.002*[#  24]+
          +0.002*[#  33]+
    |psi|^2 = 0.980
     e =     2.99571 eV
     psi = 
    |psi|^2 = 0.000
     e =     3.65701 eV
     psi = 0.055*[#   2]+0.055*[#  11]+0.055*[#  20]+0.055*[#  29]+0.031*[#   1]+
          +0.031*[#  10]+0.031*[#  19]+0.031*[#  28]+
    |psi|^2 = 0.345
     e =     3.89803 eV
     psi = 
    |psi|^2 = 0.000
     e =     3.91463 eV
     psi = 0.156*[#   1]+0.156*[#  10]+0.156*[#  19]+0.156*[#  28]+0.045*[#   2]+
          +0.045*[#  11]+0.045*[#  20]+0.045*[#  29]+0.026*[#   5]+0.026*[#  14]+
          +0.026*[#  23]+0.026*[#  32]+
    |psi|^2 = 0.910
     e =     4.58175 eV
     psi = 0.003*[#   3]+0.003*[#  12]+0.003*[#  21]+0.003*[#  30]+
    |psi|^2 = 0.013
     e =     4.58175 eV
     psi = 0.003*[#   4]+0.003*[#  13]+0.003*[#  22]+0.003*[#  31]+
    |psi|^2 = 0.013
     e =     4.92081 eV
     psi = 
    |psi|^2 = 0.000
     e =     4.98212 eV
     psi = 
    |psi|^2 = 0.000

 k =   0.0000000000  0.0000000000 -0.0496103438
     e =    -9.80454 eV
     psi = 0.185*[#   5]+0.185*[#  14]+0.185*[#  23]+0.185*[#  32]+0.064*[#   1]+
          +0.064*[#  10]+0.064*[#  19]+0.064*[#  28]+
    |psi|^2 = 0.997
     e =    -7.50248 eV
     psi = 0.142*[#   7]+0.142*[#  16]+0.142*[#  25]+0.142*[#  34]+0.108*[#   6]+
          +0.108*[#  15]+0.108*[#  24]+0.108*[#  33]+
    |psi|^2 = 0.999
     e =    -7.50248 eV
     psi = 0.142*[#   6]+0.142*[#  15]+0.142*[#  24]+0.142*[#  33]+0.108*[#   7]+
          +0.108*[#  16]+0.108*[#  25]+0.108*[#  34]+
    |psi|^2 = 0.999
     e =    -7.12815 eV
     psi = 0.207*[#   5]+0.207*[#  14]+0.207*[#  23]+0.207*[#  32]+0.023*[#   1]+
          +0.023*[#  10]+0.023*[#  19]+0.023*[#  28]+0.019*[#   2]+0.019*[#  11]+
          +0.019*[#  20]+0.019*[#  29]+
    |psi|^2 = 0.994
     e =    -6.47947 eV
     psi = 0.221*[#   5]+0.221*[#  14]+0.221*[#  23]+0.221*[#  32]+0.016*[#   2]+
          +0.016*[#  11]+0.016*[#  20]+0.016*[#  29]+0.012*[#   1]+0.012*[#  10]+
          +0.012*[#  19]+0.012*[#  28]+
    |psi|^2 = 0.993
     e =    -6.32163 eV
     psi = 0.139*[#   7]+0.139*[#  16]+0.139*[#  25]+0.139*[#  34]+0.103*[#   6]+
          +0.103*[#  15]+0.103*[#  24]+0.103*[#  33]+0.004*[#   4]+0.004*[#  13]+
          +0.004*[#  22]+0.004*[#  31]+0.003*[#   3]+0.003*[#  12]+0.003*[#  21]+
          +0.003*[#  30]+
    |psi|^2 = 0.998
     e =    -6.32163 eV
     psi = 0.139*[#   6]+0.139*[#  15]+0.139*[#  24]+0.139*[#  33]+0.103*[#   7]+
          +0.103*[#  16]+0.103*[#  25]+0.103*[#  34]+0.004*[#   3]+0.004*[#  12]+
          +0.004*[#  21]+0.004*[#  30]+0.003*[#   4]+0.003*[#  13]+0.003*[#  22]+
          +0.003*[#  31]+
    |psi|^2 = 0.998
     e =    -6.01951 eV
     psi = 0.185*[#   7]+0.185*[#  16]+0.185*[#  25]+0.185*[#  34]+0.056*[#   6]+
          +0.056*[#  15]+0.056*[#  24]+0.056*[#  33]+0.006*[#   4]+0.006*[#  13]+
          +0.006*[#  22]+0.006*[#  31]+0.002*[#   3]+0.002*[#  12]+0.002*[#  21]+
          +0.002*[#  30]+
    |psi|^2 = 0.997
     e =    -6.01951 eV
     psi = 0.185*[#   6]+0.185*[#  15]+0.185*[#  24]+0.185*[#  33]+0.056*[#   7]+
          +0.056*[#  16]+0.056*[#  25]+0.056*[#  34]+0.006*[#   3]+0.006*[#  12]+
          +0.006*[#  21]+0.006*[#  30]+0.002*[#   4]+0.002*[#  13]+0.002*[#  22]+
          +0.002*[#  31]+
    |psi|^2 = 0.997
     e =    -5.84273 eV
     psi = 0.250*[#   8]+0.250*[#  17]+0.250*[#  35]+0.249*[#  26]+
    |psi|^2 = 0.999
     e =    -5.84063 eV
     psi = 0.250*[#   9]+0.250*[#  18]+0.250*[#  36]+0.249*[#  27]+
    |psi|^2 = 0.999
     e =    -5.54957 eV
     psi = 0.250*[#  17]+0.250*[#  35]+0.250*[#   8]+0.250*[#  26]+
    |psi|^2 = 0.999
     e =    -5.54814 eV
     psi = 0.250*[#  18]+0.250*[#  36]+0.250*[#   9]+0.250*[#  27]+
    |psi|^2 = 0.999
     e =    -5.53303 eV
     psi = 0.184*[#   1]+0.184*[#  10]+0.184*[#  19]+0.184*[#  28]+0.065*[#   5]+
          +0.065*[#  14]+0.065*[#  23]+0.065*[#  32]+0.001*[#   2]+0.001*[#  11]+
          +0.001*[#  20]+0.001*[#  29]+
    |psi|^2 = 1.000
     e =    -5.48352 eV
     psi = 0.250*[#   8]+0.250*[#  26]+0.250*[#  17]+0.250*[#  35]+
    |psi|^2 = 0.999
     e =    -5.48203 eV
     psi = 0.250*[#   9]+0.250*[#  27]+0.250*[#  18]+0.250*[#  36]+
    |psi|^2 = 0.999
     e =    -5.17013 eV
     psi = 0.250*[#  26]+0.250*[#  35]+0.250*[#  17]+0.250*[#   8]+
    |psi|^2 = 1.000
     e =    -5.16868 eV
     psi = 0.250*[#  27]+0.250*[#  36]+0.250*[#  18]+0.250*[#   9]+
    |psi|^2 = 1.000
     e =    -4.71449 eV
     psi = 0.126*[#   1]+0.126*[#  10]+0.126*[#  19]+0.126*[#  28]+0.081*[#   2]+
          +0.081*[#  11]+0.081*[#  20]+0.081*[#  29]+0.043*[#   5]+0.042*[#  14]+
          +0.042*[#  23]+0.042*[#  32]+
    |psi|^2 = 0.998
     e =    -4.44207 eV
     psi = 0.130*[#   1]+0.130*[#  10]+0.130*[#  19]+0.130*[#  28]+0.091*[#   2]+
          +0.091*[#  11]+0.091*[#  20]+0.091*[#  29]+0.028*[#   5]+0.028*[#  14]+
          +0.028*[#  32]+0.027*[#  23]+
    |psi|^2 = 0.997
     e =    -4.38030 eV
     psi = 0.210*[#  23]+0.210*[#  14]+0.210*[#  32]+0.209*[#   5]+0.041*[#  19]+
          +0.040*[#  10]+0.040*[#  28]+0.040*[#   1]+
    |psi|^2 = 1.000
     e =    -4.19373 eV
     psi = 0.249*[#  24]+0.249*[#   6]+0.249*[#  15]+0.249*[#  33]+
    |psi|^2 = 1.000
     e =    -4.19373 eV
     psi = 0.249*[#  25]+0.249*[#   7]+0.249*[#  16]+0.249*[#  34]+
    |psi|^2 = 1.000
     e =    -0.08715 eV
     psi = 0.209*[#   3]+0.209*[#  12]+0.209*[#  21]+0.209*[#  30]+0.033*[#   4]+
          +0.033*[#  13]+0.033*[#  22]+0.033*[#  31]+
    |psi|^2 = 0.969
     e =    -0.08715 eV
     psi = 0.209*[#   4]+0.209*[#  13]+0.209*[#  22]+0.209*[#  31]+0.033*[#   3]+
          +0.033*[#  12]+0.033*[#  21]+0.033*[#  30]+
    |psi|^2 = 0.969
     e =     0.55132 eV
     psi = 0.234*[#   2]+0.234*[#  11]+0.234*[#  20]+0.234*[#  29]+0.009*[#   1]+
          +0.009*[#  10]+0.009*[#  19]+0.009*[#  28]+0.002*[#   5]+0.002*[#  14]+
          +0.002*[#  23]+0.002*[#  32]+
    |psi|^2 = 0.984
     e =     1.60783 eV
     psi = 0.047*[#   2]+0.047*[#  11]+0.047*[#  20]+0.047*[#  29]+
    |psi|^2 = 0.187
     e =     1.93550 eV
     psi = 0.199*[#   4]+0.199*[#  13]+0.199*[#  22]+0.199*[#  31]+0.041*[#   3]+
          +0.041*[#  12]+0.041*[#  21]+0.041*[#  30]+0.007*[#   7]+0.007*[#  16]+
          +0.007*[#  25]+0.007*[#  34]+0.001*[#   6]+0.001*[#  15]+0.001*[#  24]+
          +0.001*[#  33]+
    |psi|^2 = 0.993
     e =     1.93550 eV
     psi = 0.199*[#   3]+0.199*[#  12]+0.199*[#  21]+0.199*[#  30]+0.041*[#   4]+
          +0.041*[#  13]+0.041*[#  22]+0.041*[#  31]+0.007*[#   6]+0.007*[#  15]+
          +0.007*[#  24]+0.007*[#  33]+0.001*[#   7]+0.001*[#  16]+0.001*[#  25]+
          +0.001*[#  34]+
    |psi|^2 = 0.993
     e =     2.38195 eV
     psi = 0.208*[#   4]+0.208*[#  13]+0.208*[#  22]+0.208*[#  31]+0.032*[#   3]+
          +0.032*[#  12]+0.032*[#  21]+0.032*[#  30]+0.006*[#   7]+0.006*[#  16]+
          +0.006*[#  25]+0.006*[#  34]+
    |psi|^2 = 0.990
     e =     2.38195 eV
     psi = 0.208*[#   3]+0.208*[#  12]+0.208*[#  21]+0.208*[#  30]+0.032*[#   4]+
          +0.032*[#  13]+0.032*[#  22]+0.032*[#  31]+0.006*[#   6]+0.006*[#  15]+
          +0.006*[#  24]+0.006*[#  33]+
    |psi|^2 = 0.990
     e =     2.87936 eV
     psi = 0.074*[#   2]+0.074*[#  11]+0.074*[#  20]+0.074*[#  29]+0.041*[#   1]+
          +0.041*[#  10]+0.041*[#  19]+0.041*[#  28]+
    |psi|^2 = 0.458
     e =     2.95063 eV
     psi = 
    |psi|^2 = 0.000
     e =     3.18647 eV
     psi = 0.191*[#   1]+0.191*[#  10]+0.191*[#  19]+0.191*[#  28]+0.037*[#   5]+
          +0.037*[#  14]+0.037*[#  23]+0.037*[#  32]+0.011*[#   2]+0.011*[#  11]+
          +0.011*[#  20]+0.011*[#  29]+
    |psi|^2 = 0.951
     e =     3.24461 eV
     psi = 0.065*[#   2]+0.065*[#  11]+0.065*[#  20]+0.065*[#  29]+0.037*[#   1]+
          +0.037*[#  10]+0.037*[#  19]+0.037*[#  28]+
    |psi|^2 = 0.408
     e =     4.21407 eV
     psi = 
    |psi|^2 = 0.000
     e =     4.52814 eV
     psi = 0.003*[#   4]+0.003*[#  13]+0.003*[#  22]+0.003*[#  31]+
    |psi|^2 = 0.014
     e =     4.52814 eV
     psi = 0.003*[#   3]+0.003*[#  12]+0.003*[#  21]+0.003*[#  30]+
    |psi|^2 = 0.014
     e =     4.57542 eV
     psi = 
    |psi|^2 = 0.000
     e =     4.87814 eV
     psi = 
    |psi|^2 = 0.000

Lowdin Charges: 

     Atom #   1: total charge =  10.9833, s =  0.9369, p =  0.3545, d =  9.6919, 
     Atom #   2: total charge =  10.9832, s =  0.9369, p =  0.3545, d =  9.6919, 
     Atom #   3: total charge =  10.9831, s =  0.9368, p =  0.3544, d =  9.6918, 
     Atom #   4: total charge =  10.9832, s =  0.9369, p =  0.3544, d =  9.6919, 
     Spilling Parameter:   0.0015
