
     Program PROJWFC v.5.0.2 (svn rev. 9392) starts on 17Apr2014 at 18:19:37 

     This program is part of the open-source Quantum ESPRESSO suite
     for quantum simulation of materials; please cite
         "P. Giannozzi et al., J. Phys.:Condens. Matter 21 395502 (2009);
          URL http://www.quantum-espresso.org", 
     in publications or presentations arising from this work. More details at
     http://www.quantum-espresso.org/quote.php

     Parallel version (MPI), running on     8 processors
     R & G space division:  proc/nbgrp/npool/nimage =       8

   Info: using nr1, nr2, nr3 values from input

   Info: using nr1s, nr2s, nr3s values from input

     IMPORTANT: XC functional enforced from input :
     Exchange-correlation      = PBE ( 1 4 3 4 0)
     EXX-fraction              =        0.00
     Any further DFT definition will be discarded
     Please, verify this is what you really want

 
     Parallelization info
     --------------------
     sticks:   dense  smooth     PW     G-vecs:    dense   smooth      PW
     Min         393     197     50                60231    21279    2726
     Max         394     198     51                60242    21320    2737
     Sum        3149    1581    401               481889   170431   21833
 

     negative rho (up, down):  0.526E-02 0.000E+00

     Gaussian broadening (read from file): ngauss,degauss=   0    0.010000


     Calling pprojwave .... 
 
  Problem Sizes 
  natomwfc =          121
  nbnd     =          140
  nkstot   =            4
  npwx     =         2666
  nkb      =          234
 

     Atomic states used for projection
     (read from pseudopotential files):

     state #   1: atom   1 (Au ), wfc  1 (l=0 m= 1)
     state #   2: atom   1 (Au ), wfc  2 (l=1 m= 1)
     state #   3: atom   1 (Au ), wfc  2 (l=1 m= 2)
     state #   4: atom   1 (Au ), wfc  2 (l=1 m= 3)
     state #   5: atom   1 (Au ), wfc  3 (l=2 m= 1)
     state #   6: atom   1 (Au ), wfc  3 (l=2 m= 2)
     state #   7: atom   1 (Au ), wfc  3 (l=2 m= 3)
     state #   8: atom   1 (Au ), wfc  3 (l=2 m= 4)
     state #   9: atom   1 (Au ), wfc  3 (l=2 m= 5)
     state #  10: atom   2 (Au ), wfc  1 (l=0 m= 1)
     state #  11: atom   2 (Au ), wfc  2 (l=1 m= 1)
     state #  12: atom   2 (Au ), wfc  2 (l=1 m= 2)
     state #  13: atom   2 (Au ), wfc  2 (l=1 m= 3)
     state #  14: atom   2 (Au ), wfc  3 (l=2 m= 1)
     state #  15: atom   2 (Au ), wfc  3 (l=2 m= 2)
     state #  16: atom   2 (Au ), wfc  3 (l=2 m= 3)
     state #  17: atom   2 (Au ), wfc  3 (l=2 m= 4)
     state #  18: atom   2 (Au ), wfc  3 (l=2 m= 5)
     state #  19: atom   3 (Au ), wfc  1 (l=0 m= 1)
     state #  20: atom   3 (Au ), wfc  2 (l=1 m= 1)
     state #  21: atom   3 (Au ), wfc  2 (l=1 m= 2)
     state #  22: atom   3 (Au ), wfc  2 (l=1 m= 3)
     state #  23: atom   3 (Au ), wfc  3 (l=2 m= 1)
     state #  24: atom   3 (Au ), wfc  3 (l=2 m= 2)
     state #  25: atom   3 (Au ), wfc  3 (l=2 m= 3)
     state #  26: atom   3 (Au ), wfc  3 (l=2 m= 4)
     state #  27: atom   3 (Au ), wfc  3 (l=2 m= 5)
     state #  28: atom   4 (Au ), wfc  1 (l=0 m= 1)
     state #  29: atom   4 (Au ), wfc  2 (l=1 m= 1)
     state #  30: atom   4 (Au ), wfc  2 (l=1 m= 2)
     state #  31: atom   4 (Au ), wfc  2 (l=1 m= 3)
     state #  32: atom   4 (Au ), wfc  3 (l=2 m= 1)
     state #  33: atom   4 (Au ), wfc  3 (l=2 m= 2)
     state #  34: atom   4 (Au ), wfc  3 (l=2 m= 3)
     state #  35: atom   4 (Au ), wfc  3 (l=2 m= 4)
     state #  36: atom   4 (Au ), wfc  3 (l=2 m= 5)
     state #  37: atom   5 (H  ), wfc  1 (l=0 m= 1)
     state #  38: atom   6 (H  ), wfc  1 (l=0 m= 1)
     state #  39: atom   7 (N  ), wfc  1 (l=0 m= 1)
     state #  40: atom   7 (N  ), wfc  2 (l=1 m= 1)
     state #  41: atom   7 (N  ), wfc  2 (l=1 m= 2)
     state #  42: atom   7 (N  ), wfc  2 (l=1 m= 3)
     state #  43: atom   8 (C  ), wfc  1 (l=0 m= 1)
     state #  44: atom   8 (C  ), wfc  2 (l=1 m= 1)
     state #  45: atom   8 (C  ), wfc  2 (l=1 m= 2)
     state #  46: atom   8 (C  ), wfc  2 (l=1 m= 3)
     state #  47: atom   9 (H  ), wfc  1 (l=0 m= 1)
     state #  48: atom  10 (H  ), wfc  1 (l=0 m= 1)
     state #  49: atom  11 (C  ), wfc  1 (l=0 m= 1)
     state #  50: atom  11 (C  ), wfc  2 (l=1 m= 1)
     state #  51: atom  11 (C  ), wfc  2 (l=1 m= 2)
     state #  52: atom  11 (C  ), wfc  2 (l=1 m= 3)
     state #  53: atom  12 (C  ), wfc  1 (l=0 m= 1)
     state #  54: atom  12 (C  ), wfc  2 (l=1 m= 1)
     state #  55: atom  12 (C  ), wfc  2 (l=1 m= 2)
     state #  56: atom  12 (C  ), wfc  2 (l=1 m= 3)
     state #  57: atom  13 (C  ), wfc  1 (l=0 m= 1)
     state #  58: atom  13 (C  ), wfc  2 (l=1 m= 1)
     state #  59: atom  13 (C  ), wfc  2 (l=1 m= 2)
     state #  60: atom  13 (C  ), wfc  2 (l=1 m= 3)
     state #  61: atom  14 (C  ), wfc  1 (l=0 m= 1)
     state #  62: atom  14 (C  ), wfc  2 (l=1 m= 1)
     state #  63: atom  14 (C  ), wfc  2 (l=1 m= 2)
     state #  64: atom  14 (C  ), wfc  2 (l=1 m= 3)
     state #  65: atom  15 (C  ), wfc  1 (l=0 m= 1)
     state #  66: atom  15 (C  ), wfc  2 (l=1 m= 1)
     state #  67: atom  15 (C  ), wfc  2 (l=1 m= 2)
     state #  68: atom  15 (C  ), wfc  2 (l=1 m= 3)
     state #  69: atom  16 (H  ), wfc  1 (l=0 m= 1)
     state #  70: atom  17 (H  ), wfc  1 (l=0 m= 1)
     state #  71: atom  18 (N  ), wfc  1 (l=0 m= 1)
     state #  72: atom  18 (N  ), wfc  2 (l=1 m= 1)
     state #  73: atom  18 (N  ), wfc  2 (l=1 m= 2)
     state #  74: atom  18 (N  ), wfc  2 (l=1 m= 3)
     state #  75: atom  19 (H  ), wfc  1 (l=0 m= 1)
     state #  76: atom  20 (H  ), wfc  1 (l=0 m= 1)
     state #  77: atom  21 (Au ), wfc  1 (l=0 m= 1)
     state #  78: atom  21 (Au ), wfc  2 (l=1 m= 1)
     state #  79: atom  21 (Au ), wfc  2 (l=1 m= 2)
     state #  80: atom  21 (Au ), wfc  2 (l=1 m= 3)
     state #  81: atom  21 (Au ), wfc  3 (l=2 m= 1)
     state #  82: atom  21 (Au ), wfc  3 (l=2 m= 2)
     state #  83: atom  21 (Au ), wfc  3 (l=2 m= 3)
     state #  84: atom  21 (Au ), wfc  3 (l=2 m= 4)
     state #  85: atom  21 (Au ), wfc  3 (l=2 m= 5)
     state #  86: atom  22 (Au ), wfc  1 (l=0 m= 1)
     state #  87: atom  22 (Au ), wfc  2 (l=1 m= 1)
     state #  88: atom  22 (Au ), wfc  2 (l=1 m= 2)
     state #  89: atom  22 (Au ), wfc  2 (l=1 m= 3)
     state #  90: atom  22 (Au ), wfc  3 (l=2 m= 1)
     state #  91: atom  22 (Au ), wfc  3 (l=2 m= 2)
     state #  92: atom  22 (Au ), wfc  3 (l=2 m= 3)
     state #  93: atom  22 (Au ), wfc  3 (l=2 m= 4)
     state #  94: atom  22 (Au ), wfc  3 (l=2 m= 5)
     state #  95: atom  23 (Au ), wfc  1 (l=0 m= 1)
     state #  96: atom  23 (Au ), wfc  2 (l=1 m= 1)
     state #  97: atom  23 (Au ), wfc  2 (l=1 m= 2)
     state #  98: atom  23 (Au ), wfc  2 (l=1 m= 3)
     state #  99: atom  23 (Au ), wfc  3 (l=2 m= 1)
     state # 100: atom  23 (Au ), wfc  3 (l=2 m= 2)
     state # 101: atom  23 (Au ), wfc  3 (l=2 m= 3)
     state # 102: atom  23 (Au ), wfc  3 (l=2 m= 4)
     state # 103: atom  23 (Au ), wfc  3 (l=2 m= 5)
     state # 104: atom  24 (Au ), wfc  1 (l=0 m= 1)
     state # 105: atom  24 (Au ), wfc  2 (l=1 m= 1)
     state # 106: atom  24 (Au ), wfc  2 (l=1 m= 2)
     state # 107: atom  24 (Au ), wfc  2 (l=1 m= 3)
     state # 108: atom  24 (Au ), wfc  3 (l=2 m= 1)
     state # 109: atom  24 (Au ), wfc  3 (l=2 m= 2)
     state # 110: atom  24 (Au ), wfc  3 (l=2 m= 3)
     state # 111: atom  24 (Au ), wfc  3 (l=2 m= 4)
     state # 112: atom  24 (Au ), wfc  3 (l=2 m= 5)
     state # 113: atom  25 (Au ), wfc  1 (l=0 m= 1)
     state # 114: atom  25 (Au ), wfc  2 (l=1 m= 1)
     state # 115: atom  25 (Au ), wfc  2 (l=1 m= 2)
     state # 116: atom  25 (Au ), wfc  2 (l=1 m= 3)
     state # 117: atom  25 (Au ), wfc  3 (l=2 m= 1)
     state # 118: atom  25 (Au ), wfc  3 (l=2 m= 2)
     state # 119: atom  25 (Au ), wfc  3 (l=2 m= 3)
     state # 120: atom  25 (Au ), wfc  3 (l=2 m= 4)
     state # 121: atom  25 (Au ), wfc  3 (l=2 m= 5)

 k =   0.0000000000  0.0000000000  0.0345235838
     e =   -23.38839 eV
     psi = 0.263*[#  39]+0.199*[#  71]+0.099*[#  43]+0.079*[#  65]+0.043*[#  38]+
          +0.042*[#  37]+0.032*[#  76]+0.032*[#  75]+0.023*[#  49]+0.022*[#  53]+
          +0.020*[#  57]+0.020*[#  61]+0.015*[#  44]+0.010*[#  66]+0.010*[#  40]+
          +0.008*[#  72]+0.008*[#  51]+0.006*[#  55]+0.006*[#  59]+0.006*[#  29]+
          +0.006*[#  63]+0.005*[#  78]+0.003*[#  47]+0.003*[#  48]+0.003*[#  46]+
          +0.003*[#  69]+0.003*[#  70]+0.003*[#  56]+0.002*[#  64]+0.002*[#  68]+
          +0.002*[#  28]+0.002*[#  31]+0.002*[#  80]+0.001*[#  60]+0.001*[#  77]+
          +0.001*[#  52]+
    |psi|^2 = 0.990
     e =   -23.22649 eV
     psi = 0.291*[#  71]+0.227*[#  39]+0.077*[#  65]+0.056*[#  43]+0.047*[#  76]+
          +0.046*[#  75]+0.036*[#  38]+0.036*[#  37]+0.032*[#  66]+0.027*[#  44]+
          +0.008*[#  72]+0.007*[#  68]+0.007*[#  58]+0.006*[#  50]+0.006*[#  40]+
          +0.006*[#  46]+0.006*[#  57]+0.006*[#  61]+0.006*[#  62]+0.005*[#  54]+
          +0.005*[#  59]+0.005*[#  64]+0.005*[#  78]+0.004*[#  51]+0.004*[#  56]+
          +0.003*[#  29]+0.003*[#  49]+0.003*[#  53]+0.002*[#  80]+0.002*[#  77]+
          +0.002*[#  63]+0.001*[#  28]+0.001*[#  31]+0.001*[#  67]+
    |psi|^2 = 0.989
     e =   -20.58858 eV
     psi = 0.101*[#  49]+0.101*[#  53]+0.101*[#  61]+0.101*[#  57]+0.060*[#  66]+
          +0.059*[#  44]+0.059*[#  71]+0.058*[#  39]+0.048*[#  43]+0.047*[#  65]+
          +0.016*[#  46]+0.015*[#  68]+0.014*[#  55]+0.014*[#  63]+0.012*[#  48]+
          +0.012*[#  47]+0.012*[#  69]+0.012*[#  70]+0.011*[#  75]+0.011*[#  37]+
          +0.011*[#  38]+0.011*[#  76]+0.010*[#  62]+0.010*[#  54]+0.010*[#  52]+
          +0.010*[#  60]+0.008*[#  50]+0.008*[#  58]+0.006*[#  51]+0.006*[#  59]+
          +0.006*[#  74]+0.005*[#  42]+0.004*[#  40]+0.004*[#  72]+0.003*[#  45]+
          +0.003*[#  67]+0.001*[#  41]+
    |psi|^2 = 0.982
     e =   -18.36896 eV
     psi = 0.152*[#  53]+0.151*[#  49]+0.152*[#  57]+0.151*[#  61]+0.072*[#  45]+
          +0.072*[#  67]+0.029*[#  47]+0.029*[#  48]+0.029*[#  69]+0.028*[#  70]+
          +0.019*[#  46]+0.019*[#  68]+0.012*[#  50]+0.012*[#  58]+0.011*[#  62]+
          +0.011*[#  54]+0.006*[#  56]+0.006*[#  64]+0.005*[#  51]+0.005*[#  59]+
          +0.004*[#  41]+0.004*[#  73]+0.001*[#  42]+
    |psi|^2 = 0.984
     e =   -17.72085 eV
     psi = 0.132*[#  43]+0.132*[#  65]+0.046*[#  57]+0.045*[#  49]+0.045*[#  61]+
          +0.044*[#  53]+0.042*[#  39]+0.042*[#  71]+0.036*[#  40]+0.036*[#  72]+
          +0.028*[#  50]+0.027*[#  58]+0.024*[#  54]+0.024*[#  62]+0.023*[#  74]+
          +0.023*[#  42]+0.019*[#  51]+0.019*[#  59]+0.019*[#  56]+0.019*[#  64]+
          +0.017*[#  37]+0.017*[#  75]+0.016*[#  38]+0.016*[#  76]+0.015*[#  66]+
          +0.015*[#  44]+0.008*[#  48]+0.009*[#  69]+0.008*[#  47]+0.008*[#  70]+
          +0.005*[#  55]+0.005*[#  63]+0.005*[#  41]+0.005*[#  46]+0.005*[#  68]+
          +0.004*[#  73]+
    |psi|^2 = 0.988
     e =   -15.29145 eV
     psi = 0.119*[#  67]+0.119*[#  45]+0.062*[#  57]+0.060*[#  49]+0.058*[#  53]+
          +0.057*[#  61]+0.046*[#  73]+0.046*[#  41]+0.038*[#  54]+0.036*[#  62]+
          +0.034*[#  50]+0.034*[#  58]+0.032*[#  46]+0.030*[#  68]+0.028*[#  69]+
          +0.027*[#  48]+0.025*[#  47]+0.025*[#  70]+0.013*[#  42]+0.010*[#  52]+
          +0.011*[#  74]+0.010*[#  60]+0.010*[#  56]+0.009*[#  64]+0.008*[#  38]+
          +0.008*[#  76]+0.007*[#  37]+0.007*[#  75]+0.002*[#  55]+0.002*[#  63]+
    |psi|^2 = 0.977
     e =   -14.82577 eV
     psi = 0.084*[#  40]+0.083*[#  72]+0.070*[#  65]+0.069*[#  43]+0.048*[#  74]+
          +0.047*[#  42]+0.043*[#  51]+0.042*[#  59]+0.037*[#  50]+0.037*[#  58]+
          +0.031*[#  64]+0.030*[#  56]+0.029*[#  62]+0.027*[#  54]+0.023*[#  53]+
          +0.023*[#  61]+0.021*[#  49]+0.020*[#  37]+0.020*[#  75]+0.020*[#  57]+
          +0.018*[#  38]+0.018*[#  76]+0.017*[#  63]+0.017*[#  55]+0.011*[#  44]+
          +0.011*[#  41]+0.011*[#  66]+0.010*[#  47]+0.010*[#  70]+0.009*[#  48]+
          +0.009*[#  73]+0.009*[#  71]+0.009*[#  39]+0.009*[#  69]+0.001*[#  46]+
          +0.001*[#  68]+
    |psi|^2 = 0.980
     e =   -13.16579 eV
     psi = 0.219*[#  73]+0.203*[#  41]+0.052*[#  42]+0.049*[#  37]+0.048*[#  76]+
          +0.048*[#  38]+0.048*[#  75]+0.036*[#  67]+0.033*[#  74]+0.032*[#  45]+
          +0.032*[#  58]+0.030*[#  50]+0.027*[#  62]+0.027*[#  54]+0.016*[#  56]+
          +0.016*[#  64]+0.011*[#  59]+0.010*[#  51]+0.009*[#  46]+0.006*[#  68]+
          +0.004*[#  53]+0.004*[#  49]+0.004*[#  57]+0.003*[#  61]+0.003*[#  52]+
          +0.002*[#  60]+0.001*[#  55]+
    |psi|^2 = 0.979
     e =   -13.01541 eV
     psi = 0.084*[#  55]+0.084*[#  63]+0.074*[#  51]+0.073*[#  59]+0.066*[#  44]+
          +0.063*[#  66]+0.048*[#  40]+0.046*[#  72]+0.039*[#  69]+0.038*[#  70]+
          +0.038*[#  47]+0.038*[#  48]+0.032*[#  42]+0.030*[#  60]+0.029*[#  74]+
          +0.029*[#  52]+0.015*[#  56]+0.014*[#  64]+0.012*[#  61]+0.011*[#  53]+
          +0.011*[#  57]+0.011*[#  46]+0.011*[#  49]+0.010*[#  68]+0.009*[#  75]+
          +0.008*[#  37]+0.008*[#  38]+0.007*[#  41]+0.006*[#  73]+0.006*[#  76]+
          +0.006*[#  54]+0.006*[#  62]+0.002*[#  58]+0.002*[#  50]+0.002*[#  45]+
          +0.002*[#  67]+
    |psi|^2 = 0.973
     e =   -12.42584 eV
     psi = 0.117*[#  72]+0.113*[#  40]+0.107*[#  66]+0.103*[#  44]+0.094*[#  42]+
          +0.087*[#  74]+0.028*[#  53]+0.027*[#  57]+0.025*[#  75]+0.025*[#  61]+
          +0.025*[#  49]+0.024*[#  38]+0.022*[#  73]+0.018*[#  47]+0.017*[#  37]+
          +0.017*[#  69]+0.017*[#  76]+0.016*[#  48]+0.015*[#  70]+0.013*[#  41]+
          +0.009*[#  46]+0.009*[#  68]+0.006*[#  58]+0.006*[#  50]+0.006*[#  52]+
          +0.006*[#  60]+0.006*[#  54]+0.005*[#  62]+0.003*[#  56]+0.003*[#  64]+
          +0.003*[#  55]+0.002*[#  65]+0.002*[#  43]+0.002*[#  63]+0.002*[#  67]+
          +0.001*[#  45]+
    |psi|^2 = 0.989
     e =   -12.06703 eV
     psi = 0.240*[#  73]+0.218*[#  41]+0.069*[#  76]+0.065*[#  37]+0.060*[#  38]+
          +0.060*[#  75]+0.049*[#  42]+0.034*[#  74]+0.022*[#  49]+0.021*[#  61]+
          +0.017*[#  57]+0.017*[#  53]+0.016*[#  48]+0.014*[#  70]+0.012*[#  69]+
          +0.011*[#  47]+0.008*[#  62]+0.008*[#  50]+0.005*[#  54]+0.005*[#  58]+
          +0.005*[#  60]+0.005*[#  52]+0.004*[#  68]+0.004*[#  45]+0.003*[#  55]+
          +0.003*[#  63]+0.002*[#  67]+0.002*[#  72]+0.001*[#  40]+
    |psi|^2 = 0.987
     e =   -10.47065 eV
     psi = 0.105*[#  59]+0.102*[#  51]+0.077*[#  69]+0.074*[#  48]+0.066*[#  47]+
          +0.062*[#  55]+0.062*[#  70]+0.059*[#  63]+0.050*[#  66]+0.049*[#  44]+
          +0.027*[#  65]+0.027*[#  43]+0.025*[#  60]+0.024*[#  54]+0.023*[#  52]+
          +0.023*[#  62]+0.016*[#  74]+0.012*[#  64]+0.012*[#  56]+0.012*[#  42]+
          +0.011*[#  53]+0.009*[#  61]+0.009*[#  41]+0.009*[#  57]+0.008*[#  49]+
          +0.006*[#  50]+0.006*[#  73]+0.006*[#  58]+0.003*[#  37]+0.003*[#  75]+
          +0.002*[#  67]+0.002*[#  45]+
    |psi|^2 = 0.987
     e =   -10.24187 eV
     psi = 0.089*[#  63]+0.078*[#  45]+0.073*[#  55]+0.072*[#  68]+0.064*[#  59]+
          +0.062*[#  73]+0.061*[#  67]+0.058*[#  51]+0.045*[#  56]+0.045*[#  41]+
          +0.044*[#  46]+0.032*[#  64]+0.030*[#  58]+0.027*[#  54]+0.025*[#  38]+
          +0.023*[#  50]+0.019*[#  62]+0.020*[#  76]+0.019*[#  70]+0.019*[#  75]+
          +0.018*[#  37]+0.014*[#  42]+0.014*[#  72]+0.013*[#  47]+0.002*[#  48]+
          +0.002*[#  49]+0.002*[#  40]+0.002*[#  83]+0.002*[#  57]+0.002*[#  60]+
          +0.002*[#  77]+0.001*[#  43]+0.001*[#  69]+0.001*[#  81]+
    |psi|^2 = 0.988
     e =    -9.99252 eV
     psi = 0.113*[#  52]+0.110*[#  60]+0.064*[#  40]+0.062*[#  46]+0.062*[#  68]+
          +0.062*[#  72]+0.050*[#  54]+0.045*[#  62]+0.044*[#  74]+0.040*[#  45]+
          +0.038*[#  67]+0.033*[#  42]+0.030*[#  48]+0.027*[#  69]+0.025*[#  64]+
          +0.025*[#  56]+0.018*[#  41]+0.014*[#  47]+0.012*[#  51]+0.010*[#  28]+
          +0.010*[#  70]+0.010*[#  77]+0.010*[#  59]+0.007*[#  32]+0.007*[#  81]+
          +0.007*[#  83]+0.006*[#  73]+0.005*[#  34]+0.004*[#  44]+0.004*[#  66]+
          +0.004*[#  55]+0.003*[#  63]+0.003*[#  71]+0.002*[#  39]+0.002*[#  33]+
          +0.002*[#  23]+0.002*[#  78]+0.002*[#  90]+0.001*[#  29]+0.001*[#  57]+
    |psi|^2 = 0.985
     e =    -9.88541 eV
     psi = 0.112*[#  58]+0.105*[#  55]+0.076*[#  63]+0.075*[#  42]+0.075*[#  50]+
          +0.058*[#  54]+0.051*[#  47]+0.041*[#  40]+0.038*[#  46]+0.036*[#  69]+
          +0.034*[#  70]+0.032*[#  62]+0.027*[#  56]+0.026*[#  45]+0.022*[#  60]+
          +0.021*[#  48]+0.021*[#  51]+0.014*[#  59]+0.013*[#  73]+0.010*[#  67]+
          +0.009*[#  28]+0.009*[#  44]+0.008*[#  64]+0.008*[#  72]+0.008*[#  38]+
          +0.007*[#  68]+0.007*[#  75]+0.007*[#  32]+0.004*[#  34]+0.004*[#  74]+
          +0.004*[#  39]+0.004*[#  52]+0.003*[#  76]+0.003*[#  33]+0.003*[#  37]+
          +0.002*[#  23]+0.001*[#  29]+
    |psi|^2 = 0.987
     e =    -9.69354 eV
     psi = 0.184*[#  74]+0.093*[#  42]+0.065*[#  50]+0.057*[#  62]+0.050*[#  41]+
          +0.042*[#  64]+0.040*[#  66]+0.038*[#  52]+0.033*[#  44]+0.030*[#  68]+
          +0.025*[#  67]+0.025*[#  46]+0.024*[#  72]+0.023*[#  63]+0.022*[#  70]+
          +0.018*[#  81]+0.018*[#  60]+0.016*[#  48]+0.016*[#  77]+0.014*[#  71]+
          +0.013*[#  32]+0.012*[#  76]+0.012*[#  83]+0.012*[#  39]+0.010*[#  40]+
          +0.010*[#  28]+0.010*[#  37]+0.007*[#  56]+0.006*[#  54]+0.006*[#  73]+
          +0.006*[#  34]+0.004*[#  90]+0.004*[#  43]+0.004*[#  47]+0.004*[#  59]+
          +0.004*[#  65]+0.003*[#  51]+0.003*[#  23]+0.003*[#  55]+0.002*[#  33]+
          +0.002*[#  86]+0.002*[#  58]+0.002*[#  69]+0.002*[#  78]+0.002*[#  19]+
          +0.001*[#  29]+0.001*[#  82]+0.001*[#  87]+
    |psi|^2 = 0.992
     e =    -9.08913 eV
     psi = 0.129*[#  72]+0.120*[#  40]+0.100*[#  58]+0.097*[#  54]+0.084*[#  62]+
          +0.081*[#  50]+0.041*[#  46]+0.041*[#  68]+0.023*[#  69]+0.020*[#  48]+
          +0.018*[#  47]+0.016*[#  70]+0.016*[#  77]+0.014*[#  60]+0.014*[#  28]+
          +0.013*[#  52]+0.012*[#  56]+0.012*[#  74]+0.011*[#  67]+0.010*[#  83]+
          +0.008*[#  81]+0.008*[#  34]+0.007*[#  64]+0.007*[#  32]+0.007*[#  90]+
          +0.006*[#  45]+0.006*[#  44]+0.006*[#  66]+0.006*[#  23]+0.006*[#  42]+
          +0.004*[#  41]+0.003*[#  86]+0.003*[#  99]+0.003*[#  19]+0.003*[#  14]+
          +0.003*[#  33]+0.003*[#  43]+0.002*[#  65]+0.002*[#  55]+0.002*[#  75]+
          +0.002*[#  38]+0.002*[#  63]+0.002*[# 108]+0.001*[#   5]+0.001*[#  36]+
          +0.001*[#  10]+0.001*[#  78]+0.001*[#  82]+0.001*[#  84]+0.001*[#  95]+
          +0.001*[#  29]+0.001*[#  37]+0.001*[# 117]+
    |psi|^2 = 0.994
     e =    -8.61792 eV
     psi = 0.147*[# 117]+0.143*[# 108]+0.129*[#   5]+0.099*[#  99]+0.089*[#  14]+
          +0.051*[# 113]+0.047*[# 104]+0.044*[#   1]+0.044*[#  90]+0.039*[#  23]+
          +0.033*[#  95]+0.030*[#  10]+0.015*[#  86]+0.013*[#  19]+0.007*[#  81]+
          +0.007*[#  32]+0.005*[#  72]+0.005*[#  40]+0.004*[#  68]+0.004*[#  46]+
          +0.003*[#  74]+0.003*[#  78]+0.002*[#  29]+0.003*[#  42]+0.002*[#  87]+
          +0.002*[#  20]+0.002*[#  58]+0.002*[#  54]+0.001*[#  77]+0.001*[#  28]+
          +0.001*[#  62]+0.001*[#  50]+0.001*[#  41]+0.001*[#  67]+0.001*[#  83]+
    |psi|^2 = 0.997
     e =    -8.29142 eV
     psi = 0.119*[#  14]+0.118*[#  23]+0.109*[#  90]+0.108*[#  99]+0.048*[#  32]+
          +0.048*[#   5]+0.045*[#  81]+0.042*[# 108]+0.038*[#  19]+0.037*[#  10]+
          +0.035*[#  86]+0.034*[#  95]+0.017*[#  28]+0.016*[#  77]+0.015*[#   1]+
          +0.013*[# 104]+0.012*[#  60]+0.011*[#  64]+0.011*[#  52]+0.011*[#  56]+
          +0.008*[#  46]+0.007*[#  68]+0.006*[#  74]+0.005*[#  42]+0.005*[# 114]+
          +0.005*[#  54]+0.004*[#  58]+0.004*[#  62]+0.004*[#  51]+0.004*[#  55]+
          +0.004*[#  50]+0.004*[#  29]+0.004*[#  72]+0.004*[#  40]+0.003*[#   2]+
          +0.003*[#  78]+0.003*[# 105]+0.003*[#  59]+0.003*[#  63]+0.003*[#  44]+
          +0.002*[#  66]+0.002*[#  67]+0.002*[# 117]+0.002*[#  83]+0.002*[#  45]+
          +0.001*[#  34]+0.001*[#  41]+0.001*[#  73]+
    |psi|^2 = 0.997
     e =    -8.01974 eV
     psi = 0.094*[#  67]+0.094*[#  55]+0.093*[#  51]+0.086*[#  45]+0.081*[#  63]+
          +0.077*[#  59]+0.073*[#  70]+0.072*[#  47]+0.071*[#  48]+0.070*[#  69]+
          +0.032*[#  60]+0.031*[#  64]+0.024*[#  46]+0.018*[#  52]+0.018*[#  56]+
          +0.017*[#  68]+0.006*[#  38]+0.005*[#  75]+0.005*[#  76]+0.005*[#  73]+
          +0.004*[#  37]+0.003*[#  42]+0.002*[#  41]+0.001*[#  58]+0.001*[#  62]+
    |psi|^2 = 0.993
     e =    -7.73930 eV
     psi = 0.066*[#  74]+0.055*[#  42]+0.045*[#  52]+0.044*[#  56]+0.041*[#  40]+
          +0.040*[#  72]+0.038*[#  14]+0.035*[#  60]+0.034*[#  99]+0.034*[#  83]+
          +0.034*[# 108]+0.032*[#  64]+0.032*[#   5]+0.027*[#  34]+0.024*[#  23]+
          +0.023*[#  90]+0.022*[# 117]+0.021*[#  81]+0.021*[#  59]+0.019*[#  63]+
          +0.018*[#  32]+0.018*[#  41]+0.017*[#  54]+0.017*[#  62]+0.015*[#  68]+
          +0.014*[#  50]+0.014*[#  58]+0.014*[#  77]+0.012*[#  28]+0.010*[#  33]+
          +0.009*[#  10]+0.008*[#  46]+0.008*[#  95]+0.008*[#  73]+0.008*[# 104]+
          +0.008*[#   1]+0.008*[#  51]+0.007*[#  55]+0.006*[#  19]+0.006*[#  45]+
          +0.006*[#  66]+0.006*[#  86]+0.006*[# 113]+0.005*[#  44]+0.005*[#  20]+
          +0.005*[#  87]+0.003*[#  29]+0.003*[#  39]+0.003*[#  71]+0.003*[#  82]+
          +0.003*[#  36]+0.002*[#  78]+0.002*[#  96]+0.002*[#  84]+0.002*[#  11]+
          +0.002*[#  37]+0.002*[#  92]+0.002*[#  76]+0.002*[# 114]+0.002*[#   2]+
          +0.002*[#  25]+0.002*[#  75]+0.002*[# 105]+0.001*[#  38]+0.001*[#  67]+
    |psi|^2 = 0.994
     e =    -7.46506 eV
     psi = 0.129*[# 117]+0.127*[#  90]+0.118*[#  23]+0.063*[#  81]+0.062*[#  32]+
          +0.041*[#   5]+0.041*[# 108]+0.031*[# 113]+0.030*[#  86]+0.028*[#  99]+
          +0.028*[#  19]+0.024*[#  14]+0.020*[#  74]+0.014*[#  42]+0.014*[#  83]+
          +0.013*[#  72]+0.012*[#  40]+0.010*[#   1]+0.010*[#  34]+0.009*[# 104]+
          +0.009*[#  28]+0.008*[#  11]+0.008*[#  77]+0.009*[#  96]+0.008*[#  52]+
          +0.008*[# 105]+0.007*[#  56]+0.007*[#   2]+0.007*[#  78]+0.007*[#  95]+
          +0.006*[#  29]+0.006*[#  46]+0.006*[#  60]+0.006*[#  68]+0.006*[#  10]+
          +0.006*[#  64]+0.005*[#  41]+0.004*[#  33]+0.004*[#  54]+0.003*[#  50]+
          +0.003*[#  62]+0.003*[#  58]+0.003*[#  59]+0.003*[#  63]+0.002*[#   7]+
          +0.002*[#  45]+0.002*[#  73]+0.002*[#  44]+0.002*[#  67]+0.002*[#   6]+
          +0.002*[#  66]+0.002*[#  51]+0.001*[#  55]+0.001*[#  36]+0.001*[#  71]+
          +0.001*[#  39]+0.001*[#  82]+0.001*[#  84]+
    |psi|^2 = 0.997
     e =    -6.64180 eV
     psi = 0.128*[#   5]+0.120*[#  32]+0.115*[# 108]+0.111*[#  81]+0.068*[#  23]+
          +0.063*[#  90]+0.038*[#  83]+0.028*[#  14]+0.026*[#  99]+0.022*[#  34]+
          +0.019*[#   1]+0.018*[# 104]+0.017*[#  92]+0.016*[# 119]+0.012*[# 114]+
          +0.011*[# 101]+0.011*[# 110]+0.010*[#  19]+0.010*[# 118]+0.010*[#  86]+
          +0.009*[#  33]+0.009*[#  11]+0.008*[#  74]+0.008*[#  96]+0.008*[#  28]+
          +0.008*[#  77]+0.007*[#  42]+0.005*[#  25]+0.005*[#  40]+0.005*[# 109]+
          +0.005*[#  20]+0.005*[#  10]+0.005*[#  72]+0.005*[#  87]+0.004*[#  95]+
          +0.004*[#  82]+0.003*[#  29]+0.003*[#  78]+0.003*[# 100]+0.003*[#  91]+
          +0.002*[#  41]+0.002*[#  36]+0.002*[#  24]+0.002*[#   7]+0.002*[#  52]+
          +0.002*[#  64]+0.002*[#  84]+0.001*[#   6]+0.001*[#  60]+0.001*[#  62]+
    |psi|^2 = 0.997
     e =    -6.43997 eV
     psi = 0.124*[# 110]+0.120*[#   7]+0.113*[# 119]+0.103*[#  16]+0.100*[# 101]+
          +0.076*[#  25]+0.063*[#  92]+0.043*[#  34]+0.036*[# 109]+0.035*[# 118]+
          +0.031*[#   6]+0.029*[# 100]+0.025*[#  83]+0.023*[#  15]+0.020*[#  91]+
          +0.015*[#  24]+0.010*[#  82]+0.008*[#  33]+0.002*[#  46]+0.002*[#  68]+
          +0.002*[#  81]+0.002*[# 108]+0.001*[#  56]+0.001*[#  90]+0.001*[#  32]+
    |psi|^2 = 0.999
     e =    -6.43332 eV
     psi = 0.128*[# 109]+0.117*[#   6]+0.112*[# 118]+0.108*[# 100]+0.098*[#  15]+
          +0.072*[#  91]+0.069*[#  24]+0.035*[#  33]+0.033*[#  82]+0.030*[#  16]+
          +0.029*[#   7]+0.026*[#  25]+0.024*[# 110]+0.022*[# 119]+0.019*[# 101]+
          +0.016*[#  34]+0.011*[#  92]+0.006*[#  81]+0.005*[# 108]+0.003*[#  83]+
          +0.003*[#  46]+0.003*[#  68]+0.003*[#  90]+0.002*[#  32]+0.002*[#  99]+
          +0.002*[#  52]+0.001*[#  14]+0.001*[#  60]+
    |psi|^2 = 0.999
     e =    -6.31009 eV
     psi = 0.153*[#  24]+0.136*[#  91]+0.122*[#  15]+0.112*[# 100]+0.104*[#  33]+
          +0.088*[#  82]+0.045*[#   6]+0.041*[# 109]+0.035*[#  25]+0.031*[#  92]+
          +0.031*[#  16]+0.023*[# 101]+0.022*[#  34]+0.021*[#  83]+0.014*[#   7]+
          +0.007*[# 110]+
    |psi|^2 = 0.999
     e =    -6.25080 eV
     psi = 0.142*[# 101]+0.124*[#  92]+0.120*[#  16]+0.104*[#  25]+0.070*[# 110]+
          +0.064*[#   7]+0.041*[#  83]+0.038*[#  91]+0.035*[#  34]+0.032*[#  15]+
          +0.030*[# 100]+0.024*[#   6]+0.020*[#  82]+0.018*[#  24]+0.015*[# 119]+
          +0.011*[#  32]+0.011*[#   5]+0.008*[#  23]+0.007*[# 109]+0.005*[#  74]+
          +0.005*[#  42]+0.004*[#  46]+0.004*[#  68]+0.004*[# 118]+0.004*[#  40]+
          +0.004*[#  72]+0.004*[#  90]+0.003*[# 108]+0.003*[#  14]+0.003*[#  64]+
          +0.002*[#  52]+0.002*[#  56]+0.002*[#  41]+0.002*[#  60]+0.001*[#  80]+
          +0.001*[#  62]+0.001*[#  67]+0.001*[#   1]+0.001*[#  29]+0.001*[#  31]+
          +0.001*[#  33]+0.001*[#  36]+0.001*[#  44]+0.001*[#  45]+0.001*[#  54]+
          +0.001*[#  66]+0.001*[# 116]+
    |psi|^2 = 0.998
     e =    -6.13177 eV
     psi = 0.114*[#  56]+0.113*[#  64]+0.105*[#  52]+0.105*[#  60]+0.047*[#  54]+
          +0.045*[#  62]+0.043*[#  58]+0.042*[#  50]+0.036*[#  55]+0.035*[#  63]+
          +0.033*[#  59]+0.031*[#  51]+0.030*[#  82]+0.028*[# 118]+0.027*[#  33]+
          +0.019*[#  34]+0.018*[#  83]+0.018*[# 119]+0.017*[# 109]+0.016*[#   6]+
          +0.013*[#  91]+0.013*[#   7]+0.012*[#  92]+0.011*[#  24]+0.008*[#  25]+
          +0.008*[# 110]+0.001*[#  16]+
    |psi|^2 = 0.997
     e =    -6.09539 eV
     psi = 0.115*[#  83]+0.110*[#  34]+0.109*[# 119]+0.087*[#  25]+0.084*[# 110]+
          +0.064*[#  92]+0.058*[#   7]+0.029*[#  33]+0.025*[# 118]+0.024*[#  82]+
          +0.021*[#   6]+0.020*[#  60]+0.019*[#  91]+0.017*[#  46]+0.016*[#  68]+
          +0.016*[# 101]+0.015*[#  24]+0.015*[#  16]+0.014*[#  52]+0.013*[# 109]+
          +0.009*[#  58]+0.009*[#  81]+0.008*[# 117]+0.007*[#  99]+0.006*[#  50]+
          +0.006*[#  59]+0.006*[#  56]+0.005*[#  45]+0.005*[#  67]+0.004*[#  44]+
          +0.004*[# 100]+0.004*[#  51]+0.004*[#  66]+0.003*[#  74]+0.002*[#  32]+
          +0.002*[#  15]+0.002*[#  54]+0.002*[#  84]+0.002*[#  64]+0.002*[#   5]+
          +0.001*[#  23]+0.001*[#  42]+0.002*[#  55]+0.002*[# 108]+0.001*[#  77]+
          +0.001*[#  13]+0.001*[#  36]+0.001*[#  98]+0.001*[#  72]+0.001*[#  87]+
          +0.001*[#  14]+
    |psi|^2 = 0.998
     e =    -6.03709 eV
     psi = 0.123*[#  82]+0.122*[# 118]+0.102*[#  33]+0.098*[#  24]+0.090*[#  91]+
          +0.070*[# 109]+0.047*[#   6]+0.032*[#  64]+0.030*[#  52]+0.027*[#  34]+
          +0.026*[#  56]+0.024*[#  92]+0.024*[#  60]+0.022*[# 119]+0.020*[#   7]+
          +0.013*[#  83]+0.013*[#  62]+0.012*[#  25]+0.012*[#  50]+0.010*[#  51]+
          +0.010*[#  54]+0.010*[#  58]+0.009*[#  63]+0.008*[#  59]+0.007*[#  55]+
          +0.006*[# 101]+0.006*[#  15]+0.003*[# 110]+0.002*[#  97]+0.001*[#  12]+
          +0.001*[#  81]+0.001*[#  30]+0.001*[# 100]+
    |psi|^2 = 0.998
     e =    -5.77205 eV
     psi = 0.132*[#  81]+0.110*[#  32]+0.097*[# 117]+0.093*[#  99]+0.092*[#  14]+
          +0.044*[# 109]+0.043*[#  82]+0.042*[#   6]+0.039*[#  33]+0.018*[# 110]+
          +0.016*[#  24]+0.016*[# 100]+0.014*[#  68]+0.014*[#  16]+0.014*[#  83]+
          +0.014*[#  25]+0.012*[#  15]+0.012*[#  46]+0.011*[#   7]+0.010*[#  34]+
          +0.010*[#  91]+0.009*[#  92]+0.009*[#  95]+0.008*[# 105]+0.008*[#  20]+
          +0.008*[#  10]+0.008*[#   2]+0.008*[#  56]+0.007*[# 113]+0.005*[#  66]+
          +0.005*[#  87]+0.005*[#  44]+0.005*[#  28]+0.005*[#  67]+0.004*[#  52]+
          +0.004*[# 119]+0.004*[#  45]+0.003*[#  54]+0.003*[#  64]+0.003*[#  90]+
          +0.002*[#  42]+0.002*[#  55]+0.002*[# 101]+0.002*[# 108]+0.002*[# 118]+
          +0.002*[#  40]+0.002*[#  50]+0.001*[#  51]+0.001*[#  36]+0.001*[#  60]+
          +0.001*[#  62]+0.001*[#  77]+0.001*[#  84]+
    |psi|^2 = 0.996
     e =    -5.73600 eV
     psi = 0.118*[#  33]+0.114*[#  82]+0.105*[# 109]+0.103*[#   6]+0.078*[#  15]+
          +0.061*[#   7]+0.057*[#  34]+0.055*[# 100]+0.051*[#  83]+0.044*[# 110]+
          +0.033*[# 101]+0.020*[#  16]+0.020*[#  25]+0.018*[#  91]+0.012*[#  81]+
          +0.009*[#  99]+0.009*[# 117]+0.008*[#  24]+0.007*[#  32]+0.007*[#  14]+
          +0.006*[#  68]+0.005*[#  46]+0.005*[#  92]+0.003*[#  21]+0.003*[#  52]+
          +0.002*[# 115]+0.002*[#  36]+0.002*[#  88]+0.002*[#  44]+0.002*[#  66]+
          +0.002*[#  56]+0.002*[#  45]+0.002*[#  60]+0.001*[#  67]+0.001*[#  35]+
          +0.001*[#  84]+0.001*[# 119]+0.001*[#  50]+0.001*[#  64]+0.001*[#  85]+
          +0.001*[#  89]+0.001*[#  97]+0.001*[# 116]+
    |psi|^2 = 0.998
     e =    -5.60234 eV
     psi = 0.090*[#  34]+0.082*[# 110]+0.073*[#  92]+0.071*[#   7]+0.065*[#  32]+
          +0.065*[#  16]+0.049*[#  81]+0.047*[#  83]+0.036*[#  14]+0.035*[#  99]+
          +0.032*[# 119]+0.030*[# 117]+0.024*[#   6]+0.023*[# 101]+0.022*[#  33]+
          +0.018*[#  25]+0.016*[#  82]+0.013*[# 100]+0.013*[#  84]+0.012*[# 109]+
          +0.011*[#  74]+0.011*[#  15]+0.010*[#  46]+0.009*[#  24]+0.008*[#  72]+
          +0.006*[# 118]+0.006*[#  64]+0.006*[#  60]+0.006*[#  68]+0.006*[#  77]+
          +0.005*[#  85]+0.005*[#  91]+0.005*[# 108]+0.005*[#  90]+0.005*[#  36]+
          +0.004*[#   2]+0.003*[#  10]+0.003*[#  87]+0.003*[# 113]+0.003*[#  62]+
          +0.003*[# 105]+0.003*[#  44]+0.003*[#  45]+0.003*[#  40]+0.003*[#  42]+
          +0.002*[#  23]+0.002*[#  58]+0.003*[#  95]+0.002*[#  22]+0.002*[#  59]+
          +0.002*[#  63]+0.002*[#  35]+0.002*[#  28]+0.002*[#  66]+0.002*[#  80]+
          +0.002*[#  98]+0.002*[#  73]+0.002*[# 116]+0.001*[#  67]+0.001*[#   5]+
          +0.001*[#  20]+
    |psi|^2 = 0.997
     e =    -5.43749 eV
     psi = 0.087*[# 119]+0.083*[# 101]+0.069*[#  36]+0.059*[#  16]+0.059*[#  83]+
          +0.057*[#  25]+0.041*[#   7]+0.039*[#  34]+0.037*[#  92]+0.029*[#  84]+
          +0.029*[#  68]+0.027*[#  46]+0.025*[# 110]+0.024*[#  32]+0.024*[# 100]+
          +0.021*[#  24]+0.021*[# 118]+0.020*[#  82]+0.016*[#  35]+0.015*[#   6]+
          +0.012*[#  42]+0.009*[#  56]+0.009*[#  52]+0.009*[#  85]+0.008*[#  67]+
          +0.008*[#  15]+0.008*[#  45]+0.008*[#  66]+0.008*[#  40]+0.007*[#  44]+
          +0.007*[#  60]+0.007*[#  74]+0.007*[#  64]+0.006*[#  14]+0.006*[#  28]+
          +0.005*[#  54]+0.005*[#  50]+0.004*[#  41]+0.004*[#  62]+0.004*[# 109]+
          +0.003*[#  33]+0.003*[#  58]+0.003*[#  72]+0.003*[#  99]+0.003*[#  55]+
          +0.003*[# 108]+0.003*[#  51]+0.003*[#  81]+0.003*[#  91]+0.002*[#  63]+
          +0.002*[#  77]+0.002*[#  59]+0.002*[#  89]+0.002*[# 107]+0.002*[#  23]+
          +0.002*[#  90]+0.002*[#   4]+0.002*[#  27]+0.001*[#  22]+0.002*[#  31]+
          +0.001*[#   9]+0.001*[#  13]+0.001*[#  75]+0.001*[# 117]+0.001*[#   5]+
          +0.001*[#  73]+
    |psi|^2 = 0.997
     e =    -5.26842 eV
     psi = 0.155*[# 118]+0.150*[# 100]+0.141*[#  15]+0.127*[#  82]+0.119*[#  33]+
          +0.055*[#  35]+0.035*[#  85]+0.027*[# 119]+0.027*[# 101]+0.025*[#  16]+
          +0.023*[#  83]+0.019*[#  34]+0.015*[#  84]+0.012*[#  91]+0.008*[#  24]+
          +0.006*[#  36]+0.005*[#  25]+0.005*[#  88]+0.005*[# 106]+0.004*[#   3]+
          +0.004*[#  21]+0.004*[#   8]+0.003*[#  26]+0.002*[# 109]+0.002*[#   7]+
          +0.001*[#  94]+
    |psi|^2 = 0.998
     e =    -5.17077 eV
     psi = 0.411*[#  84]+0.230*[#  36]+0.037*[# 119]+0.037*[# 101]+0.037*[#  83]+
          +0.031*[#  16]+0.029*[#  34]+0.029*[#  85]+0.027*[#  93]+0.027*[#  35]+
          +0.014*[#  27]+0.008*[#  81]+0.008*[# 100]+0.008*[# 118]+0.007*[#  82]+
          +0.006*[#  33]+0.005*[#  15]+0.003*[#  77]+0.003*[#   5]+0.003*[#  14]+
          +0.003*[#  32]+0.003*[# 108]+0.002*[#  94]+0.002*[#  26]+0.002*[# 102]+
          +0.002*[#  68]+0.001*[#   6]+0.001*[#  24]+0.001*[#  89]+0.001*[#  86]+
          +0.001*[# 107]+0.001*[#   4]+0.001*[#  22]+
    |psi|^2 = 0.998
     e =    -5.15966 eV
     psi = 0.595*[#  35]+0.241*[#  85]+0.039*[#  26]+0.033*[#  36]+0.016*[#  94]+
          +0.011*[# 101]+0.011*[# 119]+0.010*[#  83]+0.009*[#  34]+0.009*[#  16]+
          +0.002*[#  91]+0.002*[#  27]+0.002*[# 109]+0.002*[#  17]+0.002*[#   6]+
          +0.002*[#  24]+0.001*[# 103]+
    |psi|^2 = 0.998
     e =    -5.14322 eV
     psi = 0.497*[#  85]+0.155*[#  84]+0.150*[#  35]+0.036*[#  94]+0.022*[#  36]+
          +0.018*[#  82]+0.017*[# 118]+0.017*[# 100]+0.016*[#  15]+0.016*[#  33]+
          +0.011*[#  93]+0.010*[#  26]+0.003*[#  16]+0.003*[#  34]+0.003*[#  83]+
          +0.003*[# 101]+0.003*[# 119]+0.002*[# 103]+0.002*[#  27]+
    |psi|^2 = 0.998
     e =    -5.13164 eV
     psi = 0.492*[#  36]+0.203*[#  84]+0.074*[#  85]+0.066*[#  35]+0.036*[#  27]+
          +0.015*[#  93]+0.010*[# 108]+0.008*[#   5]+0.007*[#  81]+0.007*[#  23]+
          +0.006*[#  90]+0.005*[#  94]+0.005*[#   7]+0.005*[#  26]+0.005*[#  25]+
          +0.003*[#  34]+0.003*[#  32]+0.003*[#  16]+0.002*[#  99]+0.002*[#  18]+
          +0.002*[# 119]+0.002*[# 101]+0.002*[#  40]+0.002*[#  42]+0.001*[#   6]+
          +0.001*[#  33]+0.001*[#  24]+0.001*[#  15]+0.001*[#  29]+0.001*[#  72]+
          +0.001*[#  83]+0.001*[# 102]+
    |psi|^2 = 0.998
     e =    -4.92023 eV
     psi = 0.258*[#  81]+0.158*[#  32]+0.088*[#   5]+0.086*[# 108]+0.082*[#  77]+
          +0.041*[#  84]+0.029*[#  86]+0.023*[#  28]+0.019*[#  23]+0.017*[#  99]+
          +0.016*[#  14]+0.016*[#  85]+0.013*[#  19]+0.012*[#  96]+0.010*[#  92]+
          +0.009*[#  93]+0.008*[#  95]+0.008*[# 110]+0.008*[#  90]+0.008*[#  11]+
          +0.006*[#  74]+0.005*[#   6]+0.004*[#   7]+0.004*[#  25]+0.004*[#  68]+
          +0.004*[#  10]+0.004*[#  24]+0.003*[#  94]+0.003*[# 119]+0.003*[# 105]+
          +0.003*[#  44]+0.003*[#  46]+0.003*[#  72]+0.002*[#  16]+0.002*[#  34]+
          +0.002*[# 102]+0.002*[#   2]+0.002*[#  87]+0.002*[#  29]+0.002*[#  33]+
          +0.002*[#  60]+0.002*[#  64]+0.001*[#  78]+0.001*[#  91]+0.001*[#  67]+
          +0.001*[# 109]+0.001*[# 114]+0.001*[#  52]+
    |psi|^2 = 0.996
     e =    -4.84763 eV
     psi = 0.107*[#  32]+0.103*[#  28]+0.054*[#   9]+0.030*[#  19]+0.029*[#  16]+
          +0.029*[# 119]+0.027*[#  34]+0.027*[#  18]+0.027*[#  77]+0.026*[#  36]+
          +0.025*[# 101]+0.024*[# 121]+0.023*[#  92]+0.020*[#  84]+0.019*[#  27]+
          +0.019*[# 110]+0.019*[# 112]+0.018*[#  83]+0.018*[#   7]+0.018*[#  46]+
          +0.015*[#  68]+0.014*[#  82]+0.014*[#  25]+0.013*[#   5]+0.012*[#  90]+
          +0.012*[# 100]+0.011*[#  24]+0.011*[#   8]+0.011*[#  42]+0.010*[#  74]+
          +0.010*[#  93]+0.009*[#   6]+0.008*[# 109]+0.008*[# 103]+0.007*[#  11]+
          +0.007*[#  20]+0.007*[# 108]+0.006*[#  10]+0.006*[#  64]+0.006*[#  72]+
          +0.006*[# 102]+0.006*[#  40]+0.006*[#  56]+0.006*[# 118]+0.005*[#  60]+
          +0.005*[#  66]+0.005*[# 111]+0.005*[#  17]+0.005*[#  45]+0.005*[#  86]+
          +0.005*[#  52]+0.004*[#  67]+0.004*[#  35]+0.004*[#  99]+0.004*[#  44]+
          +0.004*[#  87]+0.003*[#  41]+0.003*[#  62]+0.003*[#  26]+0.003*[#  85]+
          +0.003*[#  58]+0.003*[#  91]+0.003*[#  94]+0.003*[# 120]+0.002*[#  50]+
          +0.002*[#  54]+0.002*[#  59]+0.002*[#  63]+0.002*[#  33]+0.002*[#  51]+
          +0.002*[#  55]+0.001*[#  15]+0.002*[#  73]+0.001*[#  22]+0.001*[#  81]+
          +0.001*[#  80]+0.001*[#  95]+
    |psi|^2 = 0.997
     e =    -4.81224 eV
     psi = 0.242*[# 111]+0.228*[#   8]+0.185*[# 120]+0.101*[# 102]+0.084*[#  17]+
          +0.015*[#  26]+0.014*[#   9]+0.013*[#   6]+0.013*[#  93]+0.013*[# 112]+
          +0.011*[# 121]+0.011*[#  33]+0.008*[#  24]+0.006*[#  84]+0.005*[#  18]+
          +0.005*[# 109]+0.005*[#  15]+0.005*[# 103]+0.005*[#  82]+0.005*[#   7]+
          +0.004*[#  34]+0.003*[#  25]+0.003*[# 100]+0.002*[#  91]+0.002*[#  16]+
          +0.002*[#  35]+0.001*[#  27]+0.001*[# 110]+0.001*[#  83]+
    |psi|^2 = 0.999
     e =    -4.80267 eV
     psi = 0.249*[# 112]+0.192*[#   9]+0.157*[# 121]+0.114*[# 103]+0.064*[#  18]+
          +0.025*[#  28]+0.017*[#  94]+0.014*[#  32]+0.013*[#  36]+0.011*[#  34]+
          +0.010*[#  16]+0.009*[# 111]+0.008*[#  19]+0.008*[# 120]+0.007*[#  85]+
          +0.006*[#  77]+0.006*[#   7]+0.006*[#   8]+0.006*[# 110]+0.006*[#  92]+
          +0.005*[#  27]+0.003*[#  84]+0.003*[# 102]+0.003*[#  82]+0.003*[#  10]+
          +0.002*[#  68]+0.002*[# 109]+0.002*[#  46]+0.002*[#  81]+0.002*[#  83]+
          +0.002*[#  86]+0.002*[#  20]+0.002*[#  42]+0.002*[# 119]+0.002*[#  25]+
          +0.002*[#  17]+0.001*[#  14]+0.001*[# 100]+0.001*[#  23]+0.001*[#  11]+
          +0.001*[#  40]+0.001*[#  74]+0.001*[#  91]+0.001*[#  56]+0.001*[# 101]+
    |psi|^2 = 0.999
     e =    -4.75531 eV
     psi = 0.131*[# 109]+0.130*[#   6]+0.102*[#  33]+0.092*[#  82]+0.074*[#  91]+
          +0.068*[#  24]+0.045*[#  15]+0.034*[# 100]+0.031*[#   7]+0.030*[# 110]+
          +0.029*[#  83]+0.022*[#   8]+0.020*[#  25]+0.018*[#  34]+0.017*[# 102]+
          +0.015*[# 111]+0.015*[# 101]+0.013*[#  92]+0.008*[#  17]+0.008*[#  77]+
          +0.007*[#  28]+0.006*[#  93]+0.006*[#  16]+0.005*[#  35]+0.005*[# 115]+
          +0.005*[#  94]+0.004*[#  97]+0.004*[#  12]+0.003*[# 103]+0.003*[#  21]+
          +0.003*[#  86]+0.003*[#  19]+0.003*[#  32]+0.003*[#  88]+0.002*[#   9]+
          +0.002*[#  81]+0.002*[#  85]+0.002*[#  99]+0.001*[#  90]+0.001*[#  14]+
          +0.001*[#  23]+0.001*[# 116]+0.001*[#  79]+0.001*[#  95]+0.001*[#  13]+
    |psi|^2 = 0.997
     e =    -4.73522 eV
     psi = 0.235*[#   8]+0.214*[# 102]+0.198*[#  17]+0.190*[# 111]+0.051*[#  93]+
          +0.047*[#  26]+0.010*[#  84]+0.010*[#   9]+0.008*[#  18]+0.008*[#  35]+
          +0.007*[# 103]+0.006*[# 112]+0.002*[# 110]+0.002*[#  27]+0.002*[#  94]+
          +0.002*[#  83]+
    |psi|^2 = 0.999
     e =    -4.73394 eV
     psi = 0.238*[#   9]+0.199*[#  18]+0.192*[# 103]+0.176*[# 112]+0.046*[#  27]+
          +0.044*[#  94]+0.011*[#   8]+0.009*[#  85]+0.009*[#  17]+0.009*[#  36]+
          +0.008*[# 102]+0.007*[# 111]+0.006*[# 109]+0.004*[#  82]+0.004*[#  77]+
          +0.003*[#  83]+0.003*[# 110]+0.002*[# 100]+0.002*[#  91]+0.002*[#  32]+
          +0.002*[#  26]+0.002*[# 101]+0.002*[#  93]+0.001*[#   5]+0.001*[#  81]+
          +0.001*[#  86]+0.001*[#   7]+0.001*[#  92]+0.001*[#  28]+
    |psi|^2 = 0.999
     e =    -4.70323 eV
     psi = 0.090*[# 110]+0.073*[#  83]+0.072*[#  34]+0.071*[#  77]+0.069*[#   7]+
          +0.044*[#  28]+0.041*[#  92]+0.039*[#  16]+0.030*[#  86]+0.029*[# 101]+
          +0.024*[#  25]+0.024*[#   5]+0.024*[# 109]+0.024*[#  23]+0.023*[# 103]+
          +0.019*[#  33]+0.018*[#  99]+0.017*[#  82]+0.016*[#  19]+0.016*[#   6]+
          +0.015*[#  81]+0.014*[#  14]+0.013*[#  32]+0.013*[#  91]+0.011*[#  15]+
          +0.011*[#  94]+0.011*[#  90]+0.010*[#  95]+0.007*[#  87]+0.007*[# 112]+
          +0.006*[# 121]+0.006*[#  20]+0.006*[# 100]+0.005*[#  10]+0.005*[#  68]+
          +0.004*[#  24]+0.004*[#  42]+0.004*[#  46]+0.004*[# 116]+0.003*[#  96]+
          +0.003*[#  40]+0.003*[# 104]+0.003*[#  74]+0.003*[#  98]+0.003*[#  22]+
          +0.003*[#  56]+0.003*[# 117]+0.002*[#  36]+0.002*[#  89]+0.002*[#   1]+
          +0.002*[#  84]+0.002*[# 108]+0.002*[#  52]+0.002*[#  13]+0.002*[# 119]+
          +0.002*[#  85]+0.002*[# 113]+0.001*[#  67]+0.001*[#  72]+0.001*[# 114]+
          +0.001*[#  11]+0.001*[#  93]+0.001*[#  41]+0.001*[#  64]+0.001*[# 105]+
    |psi|^2 = 0.998
     e =    -4.57903 eV
     psi = 0.115*[#  93]+0.109*[# 120]+0.105*[#  26]+0.093*[# 102]+0.090*[#  17]+
          +0.059*[#  94]+0.058*[# 121]+0.054*[#  27]+0.049*[# 103]+0.040*[#  18]+
          +0.040*[# 111]+0.020*[#   8]+0.020*[# 112]+0.013*[#   9]+0.009*[#  19]+
          +0.008*[#  84]+0.008*[#  14]+0.008*[#  10]+0.008*[#  25]+0.008*[#  35]+
          +0.007*[#  28]+0.006*[#   1]+0.005*[# 108]+0.005*[#   7]+0.005*[#  95]+
          +0.005*[# 101]+0.005*[#  86]+0.005*[# 104]+0.005*[# 113]+0.004*[#  83]+
          +0.004*[#  85]+0.003*[# 110]+0.003*[#  23]+0.003*[#  99]+0.003*[#  36]+
          +0.002*[#  34]+0.002*[#  77]+0.002*[#  81]+
    |psi|^2 = 0.999
     e =    -4.57478 eV
     psi = 0.116*[# 121]+0.116*[#  27]+0.112*[#  94]+0.105*[# 103]+0.103*[#  18]+
          +0.065*[#  93]+0.064*[# 120]+0.061*[#  26]+0.058*[# 102]+0.058*[#  17]+
          +0.034*[# 112]+0.022*[#   9]+0.021*[# 111]+0.012*[#  85]+0.010*[#   8]+
          +0.009*[#  36]+0.007*[#  84]+0.006*[#  35]+0.002*[# 109]+0.002*[#  24]+
          +0.002*[#  82]+0.001*[#   6]+0.001*[#  19]+0.001*[#  14]+
    |psi|^2 = 0.999
     e =    -4.53164 eV
     psi = 0.071*[# 104]+0.068*[#   1]+0.064*[# 113]+0.061*[#  95]+0.054*[#  99]+
          +0.053*[# 108]+0.046*[#  10]+0.044*[#  86]+0.041*[#  14]+0.033*[#   5]+
          +0.032*[#  18]+0.029*[#  25]+0.029*[#  19]+0.028*[# 119]+0.025*[#  17]+
          +0.023*[#  26]+0.022*[# 101]+0.019*[#  77]+0.017*[#  92]+0.015*[#   7]+
          +0.015*[#  27]+0.012*[#  28]+0.011*[#  78]+0.010*[#  36]+0.009*[#  81]+
          +0.008*[# 102]+0.007*[# 120]+0.007*[#   8]+0.006*[#  29]+0.006*[#  35]+
          +0.006*[#  74]+0.005*[# 103]+0.005*[#  16]+0.005*[#  46]+0.005*[#  23]+
          +0.005*[#  72]+0.004*[#  24]+0.004*[#  84]+0.004*[# 121]+0.004*[# 118]+
          +0.004*[#  68]+0.004*[# 111]+0.003*[#  91]+0.003*[#  90]+0.003*[#  15]+
          +0.003*[#  34]+0.003*[#  42]+0.003*[#  60]+0.003*[#  64]+0.003*[#  20]+
          +0.003*[#  40]+0.003*[#  66]+0.003*[#  44]+0.002*[#  83]+0.002*[#  87]+
          +0.002*[#  85]+0.002*[#  56]+0.002*[#   9]+0.002*[#  52]+0.002*[#  11]+
          +0.002*[#  45]+0.002*[#  80]+0.001*[#   2]+0.001*[#  31]+0.001*[# 100]+
          +0.001*[# 109]+0.001*[#  32]+0.001*[#  59]+0.001*[#  62]+0.001*[#  67]+
          +0.001*[#  71]+0.001*[# 107]+0.001*[# 110]+
    |psi|^2 = 0.998
     e =    -4.49444 eV
     psi = 0.211*[#  26]+0.194*[#   8]+0.190*[# 111]+0.187*[#  93]+0.045*[#  17]+
          +0.036*[# 102]+0.016*[#  84]+0.015*[#  35]+0.012*[# 112]+0.012*[#  94]+
          +0.012*[#   9]+0.012*[#  27]+0.005*[#   1]+0.005*[#  10]+0.004*[#  14]+
          +0.003*[#  19]+0.003*[# 113]+0.003*[# 108]+0.003*[# 103]+0.002*[#  16]+
          +0.002*[# 104]+0.002*[#   5]+0.002*[#   7]+0.002*[#  18]+0.002*[#  34]+
          +0.001*[#   6]+0.001*[#  24]+0.001*[#  85]+
    |psi|^2 = 0.999
     e =    -4.49337 eV
     psi = 0.213*[#  27]+0.200*[# 112]+0.196*[#   9]+0.195*[#  94]+0.044*[#  18]+
          +0.036*[# 103]+0.015*[#  85]+0.013*[#  36]+0.013*[#  26]+0.012*[#   8]+
          +0.011*[# 111]+0.011*[#  93]+0.003*[#   6]+0.003*[#  10]+0.003*[#   1]+
          +0.003*[#  17]+0.002*[# 102]+0.002*[#  33]+0.002*[#  19]+0.002*[#  14]+
          +0.002*[# 113]+0.001*[#   5]+0.001*[#  16]+0.001*[# 108]+0.001*[#  15]+
          +0.001*[#  84]+0.001*[#   7]+0.001*[#  34]+0.001*[# 104]+
    |psi|^2 = 0.999
     e =    -4.38796 eV
     psi = 0.074*[#  95]+0.071*[#  14]+0.070*[#  10]+0.063*[#  99]+0.058*[# 104]+
          +0.057*[#  19]+0.055*[#  86]+0.052*[#   1]+0.052*[#  90]+0.051*[# 117]+
          +0.040*[# 113]+0.026*[#  28]+0.025*[# 114]+0.024*[#  23]+0.022*[#  77]+
          +0.022*[#  81]+0.013*[#  29]+0.012*[#   2]+0.012*[# 105]+0.011*[#  16]+
          +0.010*[#  11]+0.010*[#  87]+0.010*[#  78]+0.010*[#  96]+0.010*[#  32]+
          +0.009*[#  20]+0.009*[#  34]+0.008*[#   5]+0.008*[#   7]+0.007*[# 101]+
          +0.007*[# 108]+0.005*[#  18]+0.005*[#  15]+0.005*[# 102]+0.004*[#  27]+
          +0.004*[#  83]+0.004*[#   9]+0.004*[# 110]+0.004*[#  26]+0.004*[#  36]+
          +0.004*[#  25]+0.003*[#   8]+0.003*[#  40]+0.003*[#  42]+0.002*[# 120]+
          +0.002*[#  33]+0.002*[# 103]+0.002*[#   6]+0.002*[# 121]+0.001*[#  68]+
          +0.001*[#  72]+0.001*[#  74]+0.001*[#  24]+0.001*[#  35]+0.001*[#  39]+
          +0.001*[#  56]+0.001*[# 119]+0.001*[#  84]+
    |psi|^2 = 0.998
     e =    -4.35467 eV
     psi = 0.106*[# 117]+0.062*[# 113]+0.053*[#   1]+0.051*[# 104]+0.043*[#  25]+
          +0.034*[# 119]+0.032*[#  81]+0.032*[#  77]+0.031*[#  10]+0.030*[#  92]+
          +0.028*[#  95]+0.025*[#  90]+0.023*[#  28]+0.023*[# 101]+0.022*[#  99]+
          +0.022*[#  86]+0.020*[#  14]+0.020*[#  96]+0.017*[#   7]+0.017*[#  19]+
          +0.015*[#  11]+0.014*[#  16]+0.014*[#  20]+0.014*[#  32]+0.014*[#  87]+
          +0.014*[#   5]+0.012*[#  27]+0.011*[#  34]+0.011*[# 120]+0.011*[#  26]+
          +0.010*[# 102]+0.010*[#  18]+0.009*[# 114]+0.009*[#  24]+0.008*[#  23]+
          +0.007*[# 105]+0.006*[#   2]+0.006*[# 121]+0.005*[#  78]+0.005*[#  15]+
          +0.005*[#  17]+0.005*[#  93]+0.004*[#   8]+0.004*[# 110]+0.004*[#  29]+
          +0.004*[# 108]+0.004*[#   9]+0.004*[#  72]+0.004*[#  74]+0.003*[# 103]+
          +0.003*[#  83]+0.003*[#  40]+0.003*[# 118]+0.003*[#  42]+0.002*[#  91]+
          +0.002*[#  94]+0.002*[#   6]+0.002*[#  46]+0.002*[#  36]+0.002*[#  60]+
          +0.002*[#  66]+0.002*[#  44]+0.002*[#  64]+0.002*[#  68]+0.002*[#  80]+
          +0.002*[# 100]+0.001*[#  13]+0.001*[#  31]+0.001*[#  33]+0.001*[#  52]+
          +0.001*[#  56]+0.001*[#  71]+0.001*[# 107]+0.001*[#  84]+
    |psi|^2 = 0.998
     e =    -4.31686 eV
     psi = 0.160*[# 120]+0.155*[# 121]+0.126*[#  93]+0.121*[#  94]+0.087*[#  26]+
          +0.084*[#  27]+0.056*[# 103]+0.055*[# 102]+0.032*[#  17]+0.030*[#  18]+
          +0.019*[#   8]+0.019*[#   9]+0.013*[# 111]+0.012*[# 112]+0.006*[#  84]+
          +0.005*[#  85]+0.004*[#  35]+0.004*[# 118]+0.004*[#  36]+0.003*[#  91]+
          +0.001*[#  82]+0.001*[# 109]+
    |psi|^2 = 0.999
     e =    -4.31353 eV
     psi = 0.158*[# 121]+0.146*[# 120]+0.126*[#  94]+0.118*[#  93]+0.071*[#  27]+
          +0.067*[#  26]+0.051*[# 103]+0.045*[# 102]+0.028*[#  18]+0.025*[#  17]+
          +0.015*[#   9]+0.014*[#   8]+0.013*[# 112]+0.013*[# 111]+0.010*[#  25]+
          +0.008*[#  84]+0.007*[#   7]+0.007*[#  85]+0.007*[# 117]+0.006*[#  34]+
          +0.006*[#  99]+0.004*[#  10]+0.004*[#   1]+0.004*[#  23]+0.003*[#  35]+
          +0.003*[#  36]+0.003*[#  95]+0.002*[#  32]+0.002*[#  19]+0.002*[#  86]+
          +0.002*[# 101]+0.002*[# 113]+0.002*[#  81]+0.001*[#  90]+0.001*[# 114]+
          +0.001*[#  20]+
    |psi|^2 = 0.999
     e =    -4.23765 eV
     psi = 0.257*[#  17]+0.214*[#  26]+0.183*[# 102]+0.151*[#  93]+0.061*[# 111]+
          +0.046*[#   8]+0.010*[#  18]+0.008*[#  35]+0.007*[#  27]+0.007*[#  94]+
          +0.006*[# 103]+0.007*[# 118]+0.006*[#  84]+0.006*[#  91]+0.005*[#  24]+
          +0.003*[#  82]+0.003*[# 109]+0.002*[#   6]+0.002*[#   9]+0.002*[#  33]+
          +0.002*[#  92]+0.002*[# 119]+0.001*[# 110]+0.001*[# 112]+0.001*[#  83]+
          +0.001*[# 120]+0.001*[#  15]+
    |psi|^2 = 0.999
     e =    -4.23373 eV
     psi = 0.240*[#  18]+0.207*[#  27]+0.204*[# 103]+0.159*[#  94]+0.076*[# 112]+
          +0.045*[#   9]+0.009*[#  36]+0.009*[# 102]+0.008*[#  17]+0.007*[#  26]+
          +0.006*[#  85]+0.006*[#  93]+0.005*[# 121]+0.004*[# 111]+0.001*[#   8]+
          +0.001*[#  14]+0.001*[# 117]+
    |psi|^2 = 1.000
     e =    -4.18855 eV
     psi = 0.169*[# 120]+0.111*[# 111]+0.093*[# 102]+0.072*[#  24]+0.061*[# 118]+
          +0.055*[#  91]+0.042*[# 121]+0.041*[#  93]+0.038*[#  17]+0.037*[#   8]+
          +0.035*[#  33]+0.027*[#   6]+0.025*[#  82]+0.025*[# 112]+0.018*[# 103]+
          +0.018*[# 109]+0.013*[#  25]+0.013*[#  26]+0.011*[# 119]+0.010*[#  15]+
          +0.009*[#   9]+0.009*[#  92]+0.009*[#  18]+0.008*[# 100]+0.005*[#  34]+
          +0.005*[#  94]+0.005*[#  83]+0.004*[#   7]+0.004*[# 110]+0.003*[#  12]+
          +0.003*[#  27]+0.002*[#  16]+0.002*[#   3]+0.002*[#  97]+0.002*[# 106]+
          +0.001*[#  30]+0.001*[#  79]+
    |psi|^2 = 0.999
     e =    -4.17514 eV
     psi = 0.226*[# 121]+0.122*[# 112]+0.114*[#  18]+0.113*[#   9]+0.093*[# 103]+
          +0.059*[# 120]+0.055*[#  27]+0.042*[#  94]+0.033*[#   8]+0.033*[#  17]+
          +0.032*[# 111]+0.024*[# 102]+0.016*[#  26]+0.012*[#  93]+0.002*[#  23]+
          +0.002*[#  90]+0.002*[#  36]+0.002*[#  85]+0.001*[#   5]+0.001*[#  92]+
          +0.001*[#  81]+0.001*[# 117]+0.001*[# 119]+
    |psi|^2 = 1.000
     e =    -4.15903 eV
     psi = 0.120*[# 118]+0.107*[#  91]+0.078*[#   8]+0.075*[#  24]+0.069*[#  17]+
          +0.066*[# 120]+0.049*[#  82]+0.039*[#  26]+0.036*[#  33]+0.031*[# 109]+
          +0.029*[# 111]+0.024*[#   9]+0.024*[#   6]+0.023*[#  18]+0.022*[# 121]+
          +0.021*[# 102]+0.018*[# 100]+0.018*[# 119]+0.015*[#  92]+0.014*[#  27]+
          +0.013*[#  25]+0.012*[#  93]+0.011*[# 112]+0.011*[#  15]+0.010*[# 103]+
          +0.009*[#  94]+0.008*[#  83]+0.006*[# 110]+0.005*[#  34]+0.004*[#  97]+
          +0.003*[#   7]+0.003*[# 106]+0.003*[#  12]+0.003*[#  35]+0.002*[#   3]+
          +0.002*[#  16]+0.002*[#  79]+0.002*[# 101]+0.001*[#  30]+0.001*[#  85]+
    |psi|^2 = 0.998
     e =    -4.11737 eV
     psi = 0.167*[#  23]+0.116*[#  90]+0.106*[# 108]+0.067*[#  32]+0.055*[# 117]+
          +0.050*[# 119]+0.045*[#  92]+0.034*[# 104]+0.028*[#  81]+0.027*[#  86]+
          +0.025*[#  83]+0.021*[#  19]+0.018*[#  10]+0.016*[#   5]+0.016*[#  34]+
          +0.015*[#   2]+0.014*[#   7]+0.012*[# 110]+0.011*[#  28]+0.011*[# 118]+
          +0.010*[#  77]+0.010*[#  91]+0.009*[#  96]+0.009*[#  25]+0.008*[#  20]+
          +0.008*[#  87]+0.007*[# 101]+0.007*[# 114]+0.006*[#  14]+0.005*[#   1]+
          +0.005*[#  82]+0.003*[#  99]+0.002*[# 109]+0.002*[#   6]+0.002*[#  93]+
          +0.002*[#  95]+0.002*[#  40]+0.002*[#  33]+0.002*[#  68]+0.002*[# 105]+
          +0.002*[#  27]+0.002*[# 100]+0.002*[#  15]+0.002*[#  18]+0.001*[#  42]+
          +0.002*[#  56]+0.002*[#  98]+0.001*[# 107]+0.001*[# 113]+0.001*[#   9]+
          +0.001*[#  26]+
    |psi|^2 = 0.997
     e =    -4.04097 eV
     psi = 0.134*[#   5]+0.094*[#   1]+0.060*[#  19]+0.053*[#  90]+0.045*[#  77]+
          +0.042*[# 108]+0.041*[#  23]+0.040*[#  95]+0.039*[#  11]+0.039*[# 104]+
          +0.035*[#  28]+0.035*[#  87]+0.026*[# 114]+0.026*[#  81]+0.025*[# 105]+
          +0.019*[#  20]+0.018*[#   7]+0.017*[#  16]+0.015*[#  86]+0.014*[# 113]+
          +0.013*[#  29]+0.012*[#  34]+0.009*[#  25]+0.009*[# 119]+0.008*[#  96]+
          +0.008*[#  10]+0.008*[#  14]+0.008*[#   6]+0.007*[#  92]+0.006*[#  83]+
          +0.006*[# 110]+0.006*[#  40]+0.005*[#   2]+0.005*[#  33]+0.005*[#  42]+
          +0.005*[#  15]+0.005*[# 101]+0.003*[#  68]+0.003*[#  32]+0.003*[#  36]+
          +0.003*[#  99]+0.003*[#  78]+0.002*[# 117]+0.002*[#  39]+0.002*[#  27]+
          +0.002*[#  52]+0.002*[#  56]+0.002*[#  24]+0.002*[#  41]+0.002*[#  91]+
          +0.002*[# 118]+0.001*[#  31]+0.001*[#  71]+0.001*[#  54]+0.001*[#  72]+
    |psi|^2 = 0.998
     e =    -3.95062 eV
     psi = 0.068*[# 119]+0.055*[#  83]+0.050*[#  86]+0.048*[#  25]+0.046*[# 110]+
          +0.043*[# 113]+0.041*[#  10]+0.039*[# 104]+0.035*[#  34]+0.032*[# 108]+
          +0.029*[#  92]+0.028*[#  96]+0.024*[#   2]+0.021*[#  20]+0.021*[#   5]+
          +0.020*[#  99]+0.019*[#  95]+0.019*[#  78]+0.018*[#  16]+0.018*[# 105]+
          +0.018*[# 117]+0.017*[#  19]+0.017*[#  28]+0.016*[#  14]+0.016*[#   7]+
          +0.014*[#  90]+0.013*[#  74]+0.013*[#   1]+0.012*[# 118]+0.011*[#  72]+
          +0.009*[# 114]+0.008*[#  82]+0.008*[#  91]+0.008*[#  29]+0.008*[#  46]+
          +0.007*[#  11]+0.007*[# 101]+0.007*[#  77]+0.006*[#  33]+0.006*[#  42]+
          +0.005*[#  87]+0.005*[#   6]+0.005*[#  40]+0.005*[#  60]+0.005*[#  64]+
          +0.004*[#  68]+0.004*[#  24]+0.004*[# 109]+0.003*[#  44]+0.003*[#  56]+
          +0.003*[#  66]+0.003*[#  15]+0.003*[#  84]+0.003*[#  52]+0.002*[#   4]+
          +0.002*[#  45]+0.002*[#  98]+0.002*[#  71]+0.002*[#  59]+0.002*[#  62]+
          +0.002*[#  81]+0.002*[#  41]+0.002*[#  13]+0.002*[#  58]+0.002*[#  73]+
          +0.001*[#  23]+0.002*[#  63]+0.001*[#   9]+0.001*[#  36]+0.001*[#  89]+
          +0.001*[# 100]+0.001*[#  67]+
    |psi|^2 = 0.997
     e =    -3.67633 eV
     psi = 0.161*[#  23]+0.155*[#  90]+0.146*[#  99]+0.135*[#  14]+0.047*[#  19]+
          +0.042*[#  86]+0.039*[#   5]+0.034*[#  95]+0.030*[# 101]+0.028*[#  32]+
          +0.026*[#  92]+0.025*[#  81]+0.019*[# 108]+0.014*[# 110]+0.009*[#  10]+
          +0.008*[#  11]+0.007*[#  96]+0.006*[#  28]+0.006*[#  83]+0.005*[#  87]+
          +0.005*[#  15]+0.005*[# 113]+0.005*[#  25]+0.005*[# 114]+0.005*[# 117]+
          +0.004*[#  24]+0.004*[#  16]+0.003*[# 105]+0.003*[#  29]+0.002*[#   6]+
          +0.002*[#  34]+0.002*[#  78]+0.001*[#   2]+
    |psi|^2 = 0.998
     e =    -3.66555 eV
     psi = 0.156*[# 100]+0.152*[#  15]+0.146*[#  91]+0.144*[#  24]+0.061*[# 109]+
          +0.055*[#   6]+0.040*[#  82]+0.039*[#  33]+0.031*[#  16]+0.029*[#  25]+
          +0.023*[# 101]+0.023*[#  92]+0.011*[#   7]+0.011*[#  14]+0.010*[#  23]+
          +0.008*[# 110]+0.007*[#  34]+0.007*[#  83]+0.004*[# 115]+0.004*[#  30]+
          +0.004*[#  79]+0.003*[#   3]+0.003*[#  10]+0.003*[# 106]+0.002*[#  19]+
          +0.002*[# 120]+0.002*[#  32]+0.002*[#  90]+0.002*[#   5]+0.001*[#  86]+
    |psi|^2 = 0.998
     e =    -3.62285 eV
     psi = 0.128*[#  25]+0.110*[#  16]+0.104*[#  92]+0.099*[# 101]+0.056*[#  34]+
          +0.039*[#  83]+0.038*[# 110]+0.032*[#   7]+0.032*[#  90]+0.030*[#  24]+
          +0.028*[#  86]+0.023*[#  15]+0.020*[# 100]+0.020*[#  91]+0.019*[#   1]+
          +0.016*[#  99]+0.015*[#  33]+0.013*[#   5]+0.012*[#  19]+0.011*[#  96]+
          +0.011*[# 114]+0.010*[#  11]+0.010*[# 117]+0.009*[# 109]+0.008*[# 104]+
          +0.008*[# 113]+0.007*[#  29]+0.007*[#  78]+0.007*[#  82]+0.005*[#   6]+
          +0.004*[#  77]+0.004*[#  10]+0.004*[#  14]+0.004*[#  81]+0.003*[#  95]+
          +0.003*[#  40]+0.003*[# 108]+0.003*[#   2]+0.003*[# 105]+0.002*[#  20]+
          +0.002*[#  42]+0.002*[#  87]+0.002*[#   4]+0.002*[# 116]+0.002*[#  28]+
          +0.002*[#  68]+0.002*[# 107]+0.002*[#  23]+0.001*[#  52]+0.002*[#  56]+
          +0.001*[#  31]+0.001*[#  80]+0.001*[# 121]+
    |psi|^2 = 0.998
     e =    -3.49068 eV
     psi = 0.190*[# 117]+0.115*[# 113]+0.098*[# 108]+0.063*[#   7]+0.043*[#  16]+
          +0.035*[# 119]+0.035*[#   2]+0.032*[#   5]+0.028*[#  20]+0.027*[# 105]+
          +0.026*[#  28]+0.026*[#  77]+0.025*[#  10]+0.023*[#  99]+0.021*[# 110]+
          +0.021*[#  87]+0.018*[# 104]+0.014*[#   6]+0.013*[#  25]+0.011*[#  83]+
          +0.011*[#  90]+0.007*[#   1]+0.007*[#  15]+0.007*[#  74]+0.006*[#  72]+
          +0.006*[#  95]+0.006*[# 101]+0.005*[#  40]+0.005*[# 109]+0.005*[# 118]+
          +0.005*[#  42]+0.003*[# 100]+0.003*[#  81]+0.002*[#  71]+0.002*[#  31]+
          +0.002*[#  39]+0.002*[#  60]+0.002*[#  14]+0.002*[#  34]+0.002*[#  64]+
          +0.002*[#  92]+0.002*[#  96]+0.002*[#  46]+0.002*[#  56]+0.002*[#  78]+
          +0.002*[#  86]+0.002*[#  41]+0.002*[#  44]+0.002*[#  52]+0.001*[#  66]+
          +0.001*[#  11]+0.001*[#  19]+0.001*[# 114]+0.001*[#  22]+0.001*[#  33]+
          +0.001*[#  24]+0.001*[#  29]+0.001*[#  36]+0.001*[#  68]+0.001*[#  80]+
    |psi|^2 = 0.997
     e =    -3.42725 eV
     psi = 0.132*[#  14]+0.098*[#   5]+0.085*[#  99]+0.071*[# 108]+0.069*[#  10]+
          +0.068*[#  23]+0.055*[# 117]+0.049*[#  95]+0.039*[#  90]+0.039*[# 119]+
          +0.036*[# 110]+0.029*[#  19]+0.025*[# 101]+0.016*[#  20]+0.014*[# 109]+
          +0.014*[#  87]+0.013*[# 104]+0.013*[#   2]+0.013*[# 118]+0.012*[#  86]+
          +0.012*[# 100]+0.009*[#   1]+0.009*[# 105]+0.009*[#  92]+0.008*[#   7]+
          +0.007*[#  32]+0.006*[#  91]+0.005*[#  81]+0.004*[#  77]+0.004*[#  16]+
          +0.003*[#  28]+0.003*[#  29]+0.003*[#  11]+0.002*[#  40]+0.002*[#  42]+
          +0.001*[#  33]+0.002*[#  34]+
    |psi|^2 = 0.999
     e =    -3.31012 eV
     psi = 0.163*[# 118]+0.143*[# 109]+0.136*[#   6]+0.108*[# 100]+0.107*[#  15]+
          +0.058*[#  91]+0.057*[#  24]+0.039*[# 119]+0.033*[#   7]+0.033*[# 110]+
          +0.025*[#  16]+0.024*[# 101]+0.013*[#  25]+0.013*[#  82]+0.012*[#  33]+
          +0.012*[#  92]+0.003*[#  34]+0.002*[#  83]+0.002*[#  30]+0.002*[#  79]+
          +0.001*[#  21]+0.001*[#  88]+
    |psi|^2 = 0.999
     e =    -3.22476 eV
     psi = 0.081*[# 119]+0.078*[# 110]+0.076*[# 101]+0.070*[#   7]+0.067*[#  92]+
          +0.065*[#  16]+0.052*[#  25]+0.045*[#  83]+0.038*[#  95]+0.030*[#  34]+
          +0.027*[# 113]+0.026*[# 105]+0.024*[#  87]+0.017*[# 118]+0.016*[#  15]+
          +0.016*[#   6]+0.015*[#   2]+0.015*[#  10]+0.014*[#  24]+0.014*[# 109]+
          +0.012*[#  86]+0.012*[#  77]+0.012*[# 100]+0.011*[#  20]+0.010*[#  74]+
          +0.010*[#  33]+0.009*[#  72]+0.009*[#  99]+0.009*[#  91]+0.009*[#  19]+
          +0.008*[#  78]+0.007*[#  40]+0.006*[#  29]+0.006*[#  42]+0.006*[#  28]+
          +0.005*[#  82]+0.004*[#  11]+0.004*[#   1]+0.004*[#  90]+0.003*[#   5]+
          +0.003*[#  60]+0.003*[#  71]+0.003*[#  96]+0.003*[#  64]+0.003*[#  46]+
          +0.003*[#  56]+0.002*[# 114]+0.002*[#  52]+0.002*[#  39]+0.002*[#  41]+
          +0.002*[#  44]+0.002*[# 104]+0.002*[#  68]+0.002*[#  66]+0.001*[# 108]+
          +0.001*[#  59]+0.001*[#  73]+
    |psi|^2 = 0.997
     e =    -2.83475 eV
     psi = 0.096*[#  20]+0.092*[# 114]+0.089*[#   1]+0.088*[#  87]+0.087*[# 104]+
          +0.082*[#  28]+0.077*[#  77]+0.055*[#  10]+0.049*[#  95]+0.038*[#  11]+
          +0.039*[#  96]+0.013*[#   2]+0.011*[# 105]+0.011*[#  34]+0.010*[#  83]+
          +0.009*[#  86]+0.009*[#  19]+0.008*[#  40]+0.007*[#  72]+0.006*[#  25]+
          +0.006*[#  39]+0.006*[#  42]+0.006*[#  74]+0.006*[#  68]+0.006*[#  71]+
          +0.005*[#  46]+0.005*[#  33]+0.004*[#  16]+0.004*[#  92]+0.003*[#   7]+
          +0.003*[#  24]+0.003*[#  56]+0.003*[#   6]+0.002*[#  15]+0.002*[#  52]+
          +0.002*[# 118]+0.002*[# 119]+0.002*[#  41]+0.002*[#  14]+0.002*[#  32]+
          +0.002*[#  60]+0.002*[#  64]+0.002*[#  80]+0.002*[#  81]+0.002*[#  67]+
          +0.002*[#  99]+0.001*[#  45]+0.002*[#  78]+0.001*[# 108]+0.001*[#  54]+
          +0.001*[#   5]+0.001*[#  31]+0.001*[#  29]+0.001*[#  50]+0.001*[#  62]+
    |psi|^2 = 0.990
     e =    -1.69022 eV
     psi = 0.086*[#  96]+0.085*[#  11]+0.076*[# 113]+0.071*[#  77]+0.069*[#  28]+
          +0.063*[# 105]+0.063*[#   2]+0.051*[#  87]+0.049*[#  20]+0.040*[#  86]+
          +0.040*[#  19]+0.036*[# 104]+0.036*[#   1]+0.026*[#  29]+0.026*[#  78]+
          +0.010*[#  71]+0.010*[#  39]+0.009*[#  40]+0.009*[#  72]+0.008*[#  81]+
          +0.008*[#  32]+0.008*[#  80]+0.006*[#  74]+0.006*[#  83]+0.005*[#  31]+
          +0.005*[#  42]+0.004*[#  34]+0.004*[#  90]+0.004*[# 117]+0.004*[#  23]+
          +0.003*[#  52]+0.003*[#  10]+0.003*[#  30]+0.003*[#  95]+0.003*[#  76]+
          +0.002*[#  37]+0.003*[#  64]+0.002*[#  38]+0.002*[#  75]+0.002*[#  33]+
          +0.002*[#  41]+0.002*[#  46]+0.002*[#  68]+0.002*[#  92]+0.002*[# 108]+
          +0.002*[#   5]+0.002*[#  63]+0.001*[#  60]+
    |psi|^2 = 0.972
     e =    -1.02701 eV
     psi = 0.137*[#  64]+0.135*[#  56]+0.130*[#  52]+0.128*[#  60]+0.051*[#  50]+
          +0.051*[#  62]+0.050*[#  58]+0.049*[#  54]+0.040*[#  55]+0.040*[#  59]+
          +0.039*[#  63]+0.039*[#  51]+0.009*[#  30]+0.008*[#  79]+0.005*[#  80]+
          +0.005*[#  75]+0.004*[#  31]+0.003*[#  37]+0.002*[#  38]+0.001*[#  73]+
          +0.001*[#  41]+
    |psi|^2 = 0.935
     e =    -0.62512 eV
     psi = 0.099*[#  29]+0.090*[#  78]+0.040*[# 105]+0.040*[#   2]+0.028*[# 114]+
          +0.026*[#  68]+0.026*[#  46]+0.024*[#  10]+0.022*[#  95]+0.018*[#  69]+
          +0.017*[#  48]+0.016*[#  47]+0.015*[#  70]+0.014*[#  86]+0.013*[#  19]+
          +0.012*[#  75]+0.011*[#  37]+0.011*[#  38]+0.011*[#  77]+0.010*[#  76]+
          +0.009*[#  28]+0.008*[#  39]+0.009*[#  71]+0.008*[#  67]+0.008*[#  45]+
          +0.008*[#  44]+0.007*[#  96]+0.007*[#  60]+0.007*[#   1]+0.007*[#  49]+
          +0.007*[#  66]+0.007*[#  11]+0.007*[#  57]+0.006*[#  52]+0.006*[#  53]+
          +0.006*[#  58]+0.006*[# 104]+0.006*[#  61]+0.006*[#  50]+0.005*[#  62]+
          +0.004*[#  54]+0.004*[#  80]+0.004*[#  56]+0.004*[#  64]+0.004*[#  23]+
          +0.004*[#  90]+0.004*[#  32]+0.004*[#  81]+0.003*[#  72]+0.003*[#  31]+
          +0.003*[#  14]+0.003*[#  40]+0.003*[#  55]+0.003*[#  99]+0.003*[# 113]+
          +0.002*[#  63]+0.002*[#  30]+0.002*[#  59]+0.002*[#  51]+0.002*[#  42]+
          +0.001*[#   5]+0.001*[#  74]+0.001*[# 108]+
    |psi|^2 = 0.753
     e =    -0.45119 eV
     psi = 0.066*[#  68]+0.066*[#  46]+0.050*[#  78]+0.041*[#  29]+0.024*[# 114]+
          +0.022*[#  44]+0.022*[#  66]+0.021*[#  67]+0.020*[#   2]+0.020*[#  45]+
          +0.018*[# 105]+0.018*[#  11]+0.018*[#  69]+0.017*[#  96]+0.016*[#  48]+
          +0.016*[#  60]+0.015*[#  47]+0.015*[#  52]+0.014*[#  28]+0.014*[#  70]+
          +0.013*[#  56]+0.013*[#  64]+0.013*[#  77]+0.012*[#  95]+0.012*[#  19]+
          +0.011*[#  10]+0.011*[#  58]+0.011*[#  86]+0.010*[#  50]+0.010*[#  75]+
          +0.009*[#  54]+0.008*[#  37]+0.007*[#  62]+0.007*[#  38]+0.006*[#  76]+
          +0.006*[# 113]+0.006*[#  74]+0.006*[#  57]+0.006*[#  59]+0.006*[# 104]+
          +0.005*[#  49]+0.005*[#  61]+0.005*[#  63]+0.005*[#  55]+0.005*[#   1]+
          +0.005*[#  42]+0.005*[#  51]+0.005*[#  53]+0.004*[#  40]+0.004*[#  72]+
          +0.003*[#  20]+0.003*[#  23]+0.002*[#  71]+0.003*[#  90]+0.002*[#  87]+
          +0.002*[#  32]+0.002*[#  39]+0.002*[#  14]+0.002*[#  81]+0.002*[#  99]+
          +0.002*[#  41]+0.001*[# 108]+0.001*[#   5]+
    |psi|^2 = 0.775
     e =    -0.26462 eV
     psi = 0.051*[#  46]+0.051*[#  68]+0.043*[#  29]+0.041*[#  78]+0.034*[#  75]+
          +0.033*[# 105]+0.033*[#  39]+0.033*[#   2]+0.032*[#  71]+0.031*[#  38]+
          +0.030*[#  37]+0.028*[#  44]+0.027*[#  66]+0.026*[#  76]+0.017*[#  64]+
          +0.016*[#  56]+0.017*[#  67]+0.017*[# 114]+0.016*[#  45]+0.014*[#  40]+
          +0.014*[#  72]+0.014*[#  52]+0.014*[#  60]+0.013*[#  10]+0.013*[#  95]+
          +0.011*[#  80]+0.010*[#  51]+0.010*[#  86]+0.009*[#  19]+0.009*[#  59]+
          +0.007*[#  31]+0.007*[#  87]+0.007*[#  20]+0.007*[#  28]+0.007*[#  77]+
          +0.006*[#  50]+0.006*[#  58]+0.005*[#  69]+0.005*[#  48]+0.005*[#  30]+
          +0.004*[#  74]+0.004*[#  57]+0.004*[#  54]+0.004*[#  62]+0.003*[#  49]+
          +0.003*[#  83]+0.003*[#  42]+0.003*[#  89]+0.003*[#  11]+0.003*[#  32]+
          +0.003*[#  47]+0.003*[#  81]+0.003*[#  96]+0.003*[#   1]+0.003*[#  22]+
          +0.003*[#  34]+0.002*[#  53]+0.003*[# 104]+0.002*[#  55]+0.002*[#  63]+
          +0.002*[#  70]+0.002*[#  23]+0.002*[#  61]+0.002*[#  90]+0.002*[#  14]+
          +0.002*[#  99]+0.001*[#  41]+0.001*[#  21]+
    |psi|^2 = 0.855
     e =     0.37591 eV
     psi = 0.069*[#  80]+0.066*[#  31]+0.041*[# 114]+0.032*[#  96]+0.032*[#  11]+
          +0.031*[#  37]+0.029*[#  75]+0.027*[#  77]+0.026*[#  28]+0.025*[#  38]+
          +0.025*[#  39]+0.024*[#  76]+0.024*[#  89]+0.023*[#  22]+0.022*[#  71]+
          +0.018*[#  30]+0.015*[#  46]+0.014*[#  68]+0.012*[#  29]+0.012*[#  79]+
          +0.012*[#  74]+0.011*[#  78]+0.010*[#  42]+0.008*[# 105]+0.008*[#  13]+
          +0.008*[#   2]+0.008*[#  21]+0.007*[#  69]+0.007*[#  98]+0.006*[#  86]+
          +0.006*[#  48]+0.005*[#  57]+0.005*[#  19]+0.005*[#  49]+0.004*[#  45]+
          +0.004*[#  61]+0.004*[#  70]+0.004*[#  47]+0.004*[#  53]+0.004*[#  67]+
          +0.004*[#   4]+0.004*[#  41]+0.004*[#  88]+0.004*[#  95]+0.003*[#  10]+
          +0.003*[#  54]+0.003*[#  55]+0.003*[#  62]+0.003*[#  63]+0.002*[#  12]+
          +0.002*[#  73]+0.002*[# 107]+0.002*[#  64]+0.002*[# 104]+0.002*[#   1]+
          +0.002*[#  56]+0.002*[#  90]+0.002*[#  23]+0.002*[#  20]+0.001*[#  87]+
          +0.002*[# 113]+0.001*[#   3]+0.001*[# 116]+
    |psi|^2 = 0.768
     e =     0.64264 eV
     psi = 0.193*[#  31]+0.161*[#  80]+0.069*[#  22]+0.063*[#  89]+0.060*[#  79]+
          +0.057*[#  78]+0.042*[#  29]+0.026*[#  88]+0.022*[#  98]+0.020*[#  13]+
          +0.017*[#  87]+0.014*[#  75]+0.013*[#  20]+0.013*[#  30]+0.012*[#  97]+
          +0.011*[#  96]+0.010*[#  37]+0.007*[#  28]+0.007*[#  71]+0.006*[#  39]+
          +0.006*[# 106]+0.006*[# 107]+0.006*[# 113]+0.005*[#   1]+0.005*[#  21]+
          +0.005*[#  77]+0.005*[# 104]+0.004*[#  11]+0.004*[# 105]+0.004*[#  10]+
          +0.004*[# 115]+0.003*[#  38]+0.003*[#  95]+0.003*[#   4]+0.002*[#  48]+
          +0.002*[#   3]+0.002*[#  73]+0.002*[#  12]+0.002*[#  66]+0.002*[#  42]+
          +0.001*[#  16]+0.001*[# 117]+0.001*[#  25]+0.001*[#  70]+0.001*[#   2]+
    |psi|^2 = 0.926
     e =     0.68246 eV
     psi = 0.187*[#  30]+0.151*[#  79]+0.095*[#  21]+0.078*[#  88]+0.070*[#  80]+
          +0.051*[#  12]+0.046*[#  97]+0.039*[#  89]+0.032*[#   3]+0.031*[# 106]+
          +0.026*[# 115]+0.018*[#  98]+0.012*[#  31]+0.010*[# 107]+0.009*[#  76]+
          +0.007*[#  37]+0.006*[#  22]+0.006*[# 116]+0.005*[#  48]+0.005*[#  13]+
          +0.005*[#  70]+0.005*[#   4]+0.004*[#  64]+0.004*[#  29]+0.004*[#  56]+
          +0.003*[#  59]+0.003*[#  39]+0.003*[#  69]+0.003*[#  73]+0.003*[#  78]+
          +0.003*[#  51]+0.002*[#  41]+0.002*[#  71]+0.002*[#  20]+0.002*[#  87]+
          +0.001*[#  54]+0.001*[#  74]+0.001*[#  62]+
    |psi|^2 = 0.951
     e =     0.75027 eV
     psi = 0.262*[#  79]+0.187*[#  30]+0.129*[#  88]+0.085*[#  21]+0.066*[#  31]+
          +0.053*[#  97]+0.031*[#  22]+0.030*[#  12]+0.015*[#  13]+0.015*[# 106]+
          +0.008*[#  80]+0.007*[#   4]+0.006*[#   3]+0.003*[#  38]+0.003*[#  69]+
          +0.003*[# 116]+0.002*[#  75]+0.002*[#  11]+0.002*[#  29]+0.002*[#  89]+
          +0.002*[#  39]+0.002*[#  73]+0.002*[# 100]+0.002*[# 115]+0.001*[#  15]+
          +0.001*[#  47]+0.001*[#  48]+0.001*[#  70]+0.001*[#  71]+0.001*[#  37]+
          +0.001*[# 109]+0.001*[#   6]+0.001*[# 118]+
    |psi|^2 = 0.951
     e =     0.78577 eV
     psi = 0.076*[#  31]+0.060*[#  22]+0.052*[#  80]+0.043*[#  89]+0.038*[#  13]+
          +0.038*[#  30]+0.034*[#  98]+0.031*[# 116]+0.030*[# 107]+0.030*[#   4]+
          +0.027*[#  78]+0.024*[#  96]+0.024*[#  47]+0.021*[#  76]+0.020*[#  39]+
          +0.020*[#  29]+0.019*[#  21]+0.018*[# 114]+0.017*[#  38]+0.017*[#  11]+
          +0.016*[#  71]+0.016*[#   2]+0.014*[#  70]+0.012*[# 105]+0.009*[#  12]+
          +0.009*[#  48]+0.008*[#  44]+0.007*[#  53]+0.006*[#  19]+0.006*[#  69]+
          +0.005*[#  75]+0.005*[#  20]+0.005*[#  61]+0.004*[#  10]+0.004*[#   3]+
          +0.004*[#  66]+0.003*[#  68]+0.003*[#  86]+0.003*[#  37]+0.003*[#  77]+
          +0.003*[# 115]+0.003*[#  28]+0.003*[#  49]+0.003*[#  87]+0.003*[# 113]+
          +0.003*[#  79]+0.002*[#  95]+0.002*[#  74]+0.002*[#   1]+0.002*[#  34]+
          +0.001*[#  46]+0.002*[#  55]+0.002*[#  57]+0.001*[#  32]+0.001*[#  41]+
          +0.001*[#  83]+0.001*[# 106]+
    |psi|^2 = 0.829
     e =     0.89865 eV
     psi = 0.038*[#  38]+0.033*[#  29]+0.033*[#  70]+0.032*[#  47]+0.032*[#  11]+
          +0.025*[#  76]+0.025*[#  89]+0.023*[#  98]+0.022*[#  21]+0.021*[# 114]+
          +0.021*[#  30]+0.021*[# 107]+0.019*[# 116]+0.017*[#  80]+0.016*[#  96]+
          +0.015*[#  71]+0.014*[#  12]+0.014*[#  69]+0.013*[#   2]+0.013*[#   4]+
          +0.012*[#  13]+0.012*[#  61]+0.011*[#  22]+0.011*[#  53]+0.010*[#  31]+
          +0.010*[#  39]+0.010*[#  78]+0.009*[#   3]+0.007*[# 115]+0.007*[#  66]+
          +0.007*[# 105]+0.007*[#  48]+0.005*[#  77]+0.004*[#  42]+0.004*[#  28]+
          +0.004*[# 106]+0.004*[#  57]+0.004*[#  20]+0.003*[#  41]+0.003*[#  44]+
          +0.003*[#  46]+0.003*[#  86]+0.003*[#  19]+0.003*[#  49]+0.002*[#  63]+
          +0.002*[#  75]+0.002*[#  55]+0.002*[#  60]+0.002*[#  95]+0.002*[#  51]+
          +0.002*[#  68]+0.002*[#  73]+0.002*[#  74]+0.001*[#  40]+0.001*[#  97]+
          +0.001*[# 104]+0.001*[#  50]+0.001*[# 113]+
    |psi|^2 = 0.642
     e =     1.19537 eV
     psi = 0.157*[# 115]+0.136*[#   3]+0.121*[# 106]+0.074*[#  79]+0.067*[#  30]+
          +0.053*[#  12]+0.044*[#  97]+0.024*[#   4]+0.021*[#  29]+0.020*[# 116]+
          +0.016*[#  80]+0.016*[#  75]+0.013*[#  13]+0.011*[# 107]+0.010*[# 114]+
          +0.008*[#  37]+0.007*[#  11]+0.007*[#  69]+0.006*[#  31]+0.006*[#  73]+
          +0.004*[# 105]+0.004*[#  24]+0.004*[#  76]+0.003*[#  91]+0.003*[#  71]+
          +0.003*[#  20]+0.003*[#  96]+0.003*[#  48]+0.003*[#  15]+0.003*[#  41]+
          +0.003*[#  78]+0.003*[#  86]+0.003*[# 100]+0.002*[#   2]+0.002*[#  59]+
          +0.002*[#  70]+0.002*[#  89]+0.002*[#  95]+0.001*[#  22]+0.001*[#  39]+
          +0.001*[#  98]+0.001*[#  38]+0.001*[# 113]+0.001*[#  47]+0.001*[#  63]+
          +0.001*[#  52]+0.001*[#  77]+0.001*[# 104]+
    |psi|^2 = 0.899
     e =     1.21016 eV
     psi = 0.146*[# 116]+0.121*[#   4]+0.118*[# 107]+0.071*[#  31]+0.066*[#  80]+
          +0.045*[#  98]+0.043*[#  13]+0.028*[# 115]+0.023*[# 106]+0.021*[#   3]+
          +0.014*[#  78]+0.014*[#  79]+0.012*[#  29]+0.011*[#  30]+0.010*[#  37]+
          +0.009*[# 114]+0.009*[#  12]+0.009*[#  97]+0.008*[#  47]+0.008*[#  76]+
          +0.007*[#  11]+0.007*[#  96]+0.006*[#  48]+0.006*[#  70]+0.005*[#  38]+
          +0.005*[# 105]+0.004*[#  69]+0.004*[#  25]+0.004*[#  71]+0.003*[#  92]+
          +0.003*[#  41]+0.003*[#  16]+0.003*[#   2]+0.003*[# 101]+0.002*[#  39]+
          +0.002*[#  87]+0.002*[#  86]+0.002*[#  51]+0.001*[#  55]+0.001*[#  74]+
          +0.001*[#  20]+0.001*[#  62]+0.001*[#  42]+0.001*[#  59]+
    |psi|^2 = 0.885
     e =     1.39950 eV
     psi = 0.051*[#  37]+0.033*[#  96]+0.031*[#  78]+0.028*[#  29]+0.027*[#  11]+
          +0.020*[#   4]+0.015*[# 114]+0.013*[#  31]+0.013*[#  75]+0.012*[#  13]+
          +0.012*[#  39]+0.011*[# 116]+0.010*[#  41]+0.010*[#  71]+0.009*[#  89]+
          +0.009*[#  48]+0.009*[#  10]+0.009*[#  95]+0.009*[# 113]+0.008*[#  19]+
          +0.007*[#  80]+0.007*[#  86]+0.005*[#  77]+0.005*[#  55]+0.004*[#  38]+
          +0.004*[#  76]+0.003*[#  28]+0.003*[# 104]+0.003*[#   1]+0.003*[#  47]+
          +0.003*[#  69]+0.003*[# 107]+0.002*[#  67]+0.002*[#  87]+0.002*[#  54]+
          +0.002*[#  60]+0.002*[#  32]+0.002*[#  65]+0.002*[#  68]+0.002*[# 105]+
          +0.002*[#  81]+0.002*[#  43]+0.002*[#  46]+0.002*[#  58]+0.001*[#  14]+
          +0.001*[#  22]+0.001*[#  44]+0.001*[#   5]+0.001*[#  51]+0.001*[#  73]+
          +0.001*[#  99]+0.001*[# 108]+0.001*[#   2]+0.001*[#  23]+0.001*[#  90]+
          +0.001*[# 117]+0.001*[#  40]+0.001*[#  70]+0.001*[#   3]+0.001*[#  30]+
          +0.001*[#  45]+0.001*[#  49]+0.001*[#  57]+0.001*[#  62]+0.001*[#  74]+
          +0.001*[#  98]+
    |psi|^2 = 0.449
     e =     1.48769 eV
     psi = 0.132*[#  98]+0.106*[#  13]+0.070*[#  89]+0.068*[#  22]+0.068*[# 107]+
          +0.054*[#  78]+0.047*[#   4]+0.035*[#  29]+0.027*[#  97]+0.021*[# 106]+
          +0.015*[#  28]+0.015*[#  12]+0.014*[#  21]+0.013*[#  38]+0.010*[#  75]+
          +0.010*[#  77]+0.009*[#  76]+0.009*[#  88]+0.009*[#  20]+0.008*[#  87]+
          +0.006*[#  37]+0.006*[#  42]+0.006*[#  80]+0.005*[#   1]+0.005*[#  96]+
          +0.005*[#  79]+0.005*[#  74]+0.004*[# 119]+0.004*[#  10]+0.003*[#  60]+
          +0.003*[#   3]+0.003*[# 104]+0.003*[#  56]+0.003*[#  83]+0.003*[#  31]+
          +0.003*[#  34]+0.003*[#  92]+0.003*[#  95]+0.003*[# 113]+0.002*[#  64]+
          +0.002*[# 115]+0.002*[# 116]+0.002*[#  59]+0.002*[#  66]+0.002*[# 110]+
          +0.002*[#   7]+0.002*[#  51]+0.002*[#  25]+0.002*[#  55]+0.002*[#  46]+
          +0.002*[#  71]+0.002*[# 105]+0.002*[#  52]+0.001*[#   5]+0.001*[#  23]+
          +0.001*[#  54]+0.001*[#  63]+0.001*[#  41]+
    |psi|^2 = 0.875
     e =     1.64097 eV
     psi = 0.054*[#   3]+0.049*[#  76]+0.045*[#  88]+0.041*[#  97]+0.040*[#  12]+
          +0.038*[# 115]+0.037*[#  30]+0.032*[#  75]+0.032*[#  38]+0.029*[# 106]+
          +0.026*[#  70]+0.025*[#  21]+0.022*[#  47]+0.020*[#  79]+0.017*[#  69]+
          +0.017*[#  73]+0.012*[#  37]+0.011*[#  63]+0.008*[#  48]+0.008*[#  52]+
          +0.008*[#  60]+0.008*[#  80]+0.008*[#  55]+0.007*[#  98]+0.007*[#  13]+
          +0.006*[#  41]+0.006*[# 107]+0.006*[#   4]+0.006*[#  22]+0.005*[#  31]+
          +0.005*[#  74]+0.005*[# 116]+0.005*[#  89]+0.004*[#  78]+0.003*[#  42]+
          +0.003*[#  59]+0.002*[#  39]+0.002*[#  45]+0.002*[#  61]+0.002*[#  24]+
          +0.002*[# 109]+0.001*[#  15]+0.002*[#  50]+0.001*[#  96]+0.001*[# 118]+
          +0.001*[#  29]+0.001*[#  58]+0.001*[# 100]+0.001*[#  53]+0.001*[#  57]+
          +0.001*[#  91]+
    |psi|^2 = 0.693
     e =     1.79424 eV
     psi = 0.107*[#  12]+0.097*[#  97]+0.082*[# 106]+0.073*[#  79]+0.063*[#   3]+
          +0.054*[#  30]+0.025*[#  38]+0.021*[#  21]+0.021*[#  76]+0.012*[#  80]+
          +0.011*[#  13]+0.010*[#  31]+0.010*[#  98]+0.009*[#  37]+0.009*[#  88]+
          +0.008*[#  75]+0.008*[# 107]+0.007*[#  70]+0.007*[#  47]+0.006*[#  48]+
          +0.006*[#  41]+0.006*[#   4]+0.005*[#  73]+0.005*[# 115]+0.004*[# 118]+
          +0.004*[#  91]+0.004*[#  24]+0.004*[#  55]+0.004*[#  63]+0.003*[#  22]+
          +0.003*[#  49]+0.003*[#  50]+0.002*[#  29]+0.003*[#  42]+0.003*[#  58]+
          +0.002*[#  20]+0.002*[#  51]+0.002*[#  52]+0.002*[#   6]+0.002*[#  87]+
          +0.002*[#  74]+0.002*[# 105]+0.002*[#   2]+0.002*[#  39]+0.002*[#  69]+
          +0.001*[#  57]+0.001*[#  45]+0.001*[#  67]+0.001*[#  89]+0.001*[# 109]+
          +0.001*[#  28]+0.001*[#  60]+0.001*[#  78]+
    |psi|^2 = 0.742
     e =     1.88553 eV
     psi = 0.035*[#  22]+0.032*[#  89]+0.029*[# 116]+0.022*[#  87]+0.020*[#  69]+
          +0.018*[#  48]+0.018*[# 105]+0.017*[#  20]+0.014*[#   2]+0.013*[#  37]+
          +0.012*[#   4]+0.012*[# 107]+0.010*[#  75]+0.008*[#  78]+0.007*[#  49]+
          +0.007*[#  57]+0.007*[#  47]+0.007*[#  38]+0.006*[#  62]+0.006*[#  70]+
          +0.006*[#  77]+0.006*[#  13]+0.005*[#  54]+0.005*[#  31]+0.005*[#  80]+
          +0.005*[#  11]+0.004*[#  68]+0.004*[#  28]+0.004*[#  30]+0.004*[#  12]+
          +0.004*[#  41]+0.004*[#  98]+0.004*[#  59]+0.003*[#  46]+0.003*[#  51]+
          +0.003*[#  79]+0.003*[#  97]+0.003*[#  71]+0.002*[#   3]+0.002*[#  73]+
          +0.002*[# 106]+0.002*[#  29]+0.002*[#  96]+0.002*[#  39]+0.002*[#  42]+
          +0.002*[#  50]+0.001*[# 104]+0.001*[#   1]+0.001*[#  16]+0.001*[#  74]+
          +0.001*[#  58]+0.001*[# 101]+
    |psi|^2 = 0.412
     e =     1.95812 eV
     psi = 0.051*[#  69]+0.028*[#  21]+0.022*[#  48]+0.022*[# 106]+0.021*[#  78]+
          +0.021*[# 115]+0.020*[#  87]+0.020*[# 105]+0.019*[#  75]+0.019*[#  88]+
          +0.017*[#  12]+0.015*[#  38]+0.014*[#   2]+0.013*[#  71]+0.012*[#  20]+
          +0.010*[# 107]+0.009*[#  57]+0.009*[#  13]+0.007*[#  29]+0.007*[#  89]+
          +0.007*[#   3]+0.007*[#  97]+0.007*[#  30]+0.006*[# 116]+0.006*[#  80]+
          +0.006*[#  37]+0.006*[#  60]+0.006*[#  66]+0.005*[#  22]+0.005*[#  79]+
          +0.005*[#  77]+0.004*[#  39]+0.004*[#  49]+0.003*[#  50]+0.003*[#  41]+
          +0.003*[#  76]+0.003*[#  31]+0.003*[#  28]+0.002*[#  59]+0.002*[#  70]+
          +0.002*[#  73]+0.002*[#  52]+0.002*[#  58]+0.002*[#   4]+0.002*[#  11]+
          +0.002*[#  44]+0.002*[#  74]+0.002*[# 114]+0.001*[#  45]+0.001*[#  67]+
          +0.001*[#  96]+0.001*[#  98]+0.001*[#   6]+0.001*[#  42]+0.001*[# 100]+
    |psi|^2 = 0.488
     e =     2.00905 eV
     psi = 0.041*[#  98]+0.039*[#  80]+0.039*[#   4]+0.039*[#  31]+0.038*[#  29]+
          +0.029*[#  13]+0.026*[#  48]+0.025*[#   2]+0.025*[# 107]+0.023*[#  78]+
          +0.021*[#  20]+0.017*[#  37]+0.016*[# 105]+0.012*[#  88]+0.011*[#  39]+
          +0.010*[#  76]+0.009*[# 115]+0.009*[#  21]+0.009*[#  87]+0.008*[#  28]+
          +0.007*[#  75]+0.005*[#  49]+0.005*[#  69]+0.005*[# 116]+0.004*[#  22]+
          +0.004*[#  38]+0.004*[#  42]+0.004*[#  77]+0.004*[#  89]+0.004*[#   3]+
          +0.003*[#  44]+0.003*[#  73]+0.003*[#  96]+0.003*[#  19]+0.003*[#  86]+
          +0.003*[#  97]+0.003*[# 106]+0.002*[#  74]+0.002*[#  71]+0.002*[#  12]+
          +0.002*[#  41]+0.002*[#  51]+0.002*[# 119]+0.002*[#  57]+0.002*[#  92]+
          +0.002*[# 114]+0.001*[#  25]+0.001*[#  47]+0.001*[#  52]+0.001*[#  70]+
          +0.001*[#  43]+0.001*[#   1]+0.001*[#  65]+0.001*[# 104]+
    |psi|^2 = 0.555
     e =     2.11505 eV
     psi = 0.073*[#  89]+0.071*[# 116]+0.060*[#  78]+0.060*[#  22]+0.055*[#  29]+
          +0.033*[#  13]+0.024*[# 107]+0.024*[# 115]+0.023*[#  88]+0.022*[#  21]+
          +0.020*[#   2]+0.019*[#  98]+0.019*[# 105]+0.016*[#  75]+0.011*[#  37]+
          +0.011*[#  87]+0.010*[#  97]+0.010*[#  77]+0.009*[#   4]+0.009*[#  20]+
          +0.007*[#  12]+0.007*[#  80]+0.005*[#   3]+0.005*[#  28]+0.005*[#  31]+
          +0.005*[#  73]+0.004*[#  72]+0.004*[#  42]+0.004*[#  11]+0.004*[# 106]+
          +0.003*[#  38]+0.003*[#  39]+0.003*[#  46]+0.003*[#  48]+0.003*[#  52]+
          +0.003*[#  96]+0.003*[#  44]+0.003*[#  83]+0.003*[#  56]+0.003*[#  95]+
          +0.002*[#   7]+0.002*[#  74]+0.002*[#  34]+0.002*[#  41]+0.002*[#  68]+
          +0.002*[#  70]+0.002*[# 101]+0.002*[# 110]+0.002*[#  71]+0.002*[#  19]+
          +0.002*[#  40]+0.001*[#  61]+0.001*[#  64]+0.002*[#  67]+0.001*[#  16]+
          +0.001*[#  76]+0.001*[#  45]+0.001*[#  60]+0.001*[# 104]+0.001*[#   1]+
          +0.001*[#  47]+0.001*[#  66]+0.001*[#  86]+
    |psi|^2 = 0.714
     e =     2.22532 eV
     psi = 0.037*[#  76]+0.024*[#  48]+0.023*[#  38]+0.021*[#   3]+0.018*[#  97]+
          +0.018*[#  79]+0.017*[#  69]+0.014*[#  29]+0.013*[#  43]+0.013*[#  65]+
          +0.013*[#  30]+0.011*[#  40]+0.010*[#   2]+0.010*[#  72]+0.009*[# 106]+
          +0.009*[# 105]+0.008*[#  21]+0.008*[#  74]+0.007*[#  42]+0.007*[#  49]+
          +0.006*[#  51]+0.006*[#  59]+0.005*[#  78]+0.005*[#  73]+0.005*[#  12]+
          +0.004*[#  47]+0.004*[#  57]+0.004*[#  87]+0.004*[#  75]+0.004*[#  37]+
          +0.004*[# 115]+0.003*[#  52]+0.003*[#  20]+0.003*[#  31]+0.003*[#  41]+
          +0.003*[#  60]+0.003*[#  70]+0.003*[#  77]+0.003*[#  80]+0.002*[#  11]+
          +0.002*[#  28]+0.002*[#  71]+0.002*[# 104]+0.002*[#  96]+0.002*[#   1]+
          +0.002*[#  39]+0.002*[#  53]+0.002*[# 114]+0.002*[#  10]+0.001*[#  61]+
          +0.001*[#  55]+0.001*[#  95]+
    |psi|^2 = 0.400
     e =     2.40300 eV
     psi = 0.062*[#   4]+0.057*[# 107]+0.033*[#  75]+0.033*[#  37]+0.029*[#  89]+
          +0.028*[#  22]+0.028*[#  13]+0.025*[#  98]+0.024*[#  31]+0.022*[#  80]+
          +0.018*[#  56]+0.016*[#   3]+0.016*[#  64]+0.015*[# 114]+0.014*[#  60]+
          +0.013*[#  52]+0.012*[# 106]+0.012*[#  29]+0.011*[#  96]+0.010*[#   2]+
          +0.008*[#  68]+0.008*[#  21]+0.008*[#  11]+0.008*[#  73]+0.008*[#  78]+
          +0.008*[#  97]+0.007*[# 105]+0.007*[#  47]+0.007*[#  41]+0.007*[#  86]+
          +0.006*[#  44]+0.006*[#  79]+0.006*[#  46]+0.006*[#  59]+0.005*[#  30]+
          +0.005*[#  53]+0.005*[#  51]+0.004*[#  12]+0.004*[#  77]+0.004*[#  66]+
          +0.004*[# 116]+0.004*[#  55]+0.004*[#  58]+0.003*[#  67]+0.003*[#  88]+
          +0.003*[#  39]+0.003*[#  45]+0.003*[#  62]+0.003*[#  10]+0.002*[#  50]+
          +0.002*[#  61]+0.002*[#  70]+0.002*[# 119]+0.002*[#  65]+0.002*[#  19]+
          +0.002*[#  43]+0.002*[#  71]+0.002*[#  16]+0.002*[#  54]+0.002*[#  63]+
          +0.002*[#  95]+0.002*[# 101]+0.002*[#  28]+0.002*[# 104]+0.001*[#  25]+
          +0.001*[#  76]+0.001*[#  87]+0.001*[#  38]+0.001*[#  48]+0.001*[#  92]+
    |psi|^2 = 0.686
     e =     2.48033 eV
     psi = 0.053*[# 114]+0.038*[#  11]+0.030*[#  96]+0.020*[#  20]+0.017*[#   4]+
          +0.017*[#  87]+0.017*[#  28]+0.017*[#  97]+0.016*[# 115]+0.016*[#  98]+
          +0.015*[#  19]+0.015*[#  22]+0.015*[#  21]+0.014*[#  77]+0.014*[#  86]+
[...]
          +0.001*[#   4]+0.001*[#  11]+0.001*[#  43]+0.001*[#  59]+0.001*[#  89]+
          +0.001*[#  54]+
    |psi|^2 = 0.164
     e =     4.44337 eV
     psi = 0.024*[# 115]+0.021*[#  88]+0.017*[#  21]+0.012*[#  48]+0.011*[#  97]+
          +0.011*[#   3]+0.009*[# 116]+0.009*[#  69]+0.009*[#  30]+0.008*[#  89]+
          +0.007*[#   4]+0.006*[#  22]+0.006*[#  37]+0.006*[#  79]+0.005*[#  31]+
          +0.004*[#  87]+0.004*[#  12]+0.004*[#  38]+0.004*[#  47]+0.004*[#  98]+
          +0.003*[#   2]+0.003*[#  65]+0.003*[# 106]+0.003*[#  19]+0.003*[#  41]+
          +0.003*[#  50]+0.003*[#  75]+0.003*[#  10]+0.003*[#  13]+0.003*[# 114]+
          +0.002*[#  58]+0.002*[#  73]+0.002*[#  76]+0.002*[#  80]+0.002*[# 107]+
          +0.002*[#  28]+0.002*[#  60]+0.002*[#  43]+0.002*[#  49]+0.002*[#  95]+
          +0.001*[#  42]+0.002*[#  52]+0.002*[#  55]+0.001*[#   1]+0.001*[#  54]+
    |psi|^2 = 0.256
     e =     4.51921 eV
     psi = 0.013*[#  70]+0.011*[# 115]+0.011*[#  21]+0.010*[#  13]+0.008*[# 107]+
          +0.008*[# 106]+0.008*[# 105]+0.007*[#  20]+0.007*[#  47]+0.007*[#   4]+
          +0.007*[#  98]+0.006*[#  12]+0.004*[#  63]+0.004*[#  65]+0.004*[#  76]+
          +0.004*[#  88]+0.004*[#  80]+0.004*[#  77]+0.004*[#  86]+0.003*[#  69]+
          +0.003*[#  72]+0.003*[#  28]+0.002*[#  43]+0.002*[#  48]+0.002*[#  38]+
          +0.002*[#  95]+0.002*[#  55]+0.002*[#  79]+0.002*[# 116]+0.002*[#  30]+
          +0.002*[#  56]+0.002*[#  64]+0.002*[#  22]+0.002*[#  68]+0.002*[#  78]+
          +0.002*[#  31]+0.002*[#  73]+0.001*[#  61]+0.002*[#  87]+0.001*[#  51]+
          +0.001*[#  52]+0.001*[#  59]+0.001*[#  96]+0.001*[# 104]+0.001*[#  10]+
          +0.001*[#  40]+0.001*[#  54]+0.001*[#  57]+0.001*[# 113]+0.001*[# 114]+
          +0.001*[#  75]+
    |psi|^2 = 0.203
     e =     4.59741 eV
     psi = 0.018*[#   2]+0.015*[# 105]+0.014*[#  10]+0.012*[#  19]+0.012*[#  95]+
          +0.010*[#  86]+0.010*[#  29]+0.010*[#  78]+0.009*[#  49]+0.009*[#  57]+
          +0.007*[#   4]+0.007*[#  13]+0.006*[# 114]+0.006*[#   3]+0.006*[#  11]+
          +0.005*[#  96]+0.005*[#  87]+0.005*[#  48]+0.004*[#  98]+0.004*[#  12]+
          +0.004*[#  62]+0.004*[# 116]+0.004*[#  67]+0.004*[#  22]+0.004*[#  45]+
          +0.004*[#  54]+0.004*[#  75]+0.004*[#  97]+0.004*[#  76]+0.003*[#   1]+
          +0.003*[#  20]+0.003*[# 107]+0.003*[#  47]+0.003*[#  69]+0.003*[#  38]+
          +0.003*[#  89]+0.003*[# 113]+0.003*[#  60]+0.003*[#  88]+0.003*[# 115]+
          +0.002*[#  37]+0.002*[#  31]+0.002*[# 104]+0.002*[# 106]+0.002*[#  53]+
          +0.002*[#  73]+0.002*[#  21]+0.002*[#  43]+0.001*[#  42]+0.002*[#  52]+
          +0.001*[#  28]+0.001*[#  65]+0.001*[#  61]+0.001*[#  30]+0.001*[#  40]+
          +0.001*[#  41]+0.001*[#  46]+
    |psi|^2 = 0.286
     e =     4.73685 eV
     psi = 0.031*[#  98]+0.030*[#   4]+0.028*[#  89]+0.023*[#  13]+0.021*[# 107]+
          +0.021*[# 116]+0.018*[#  22]+0.015*[#  31]+0.012*[#  37]+0.011*[# 106]+
          +0.009*[#  12]+0.009*[#  29]+0.006*[#  21]+0.006*[#  59]+0.006*[#  65]+
          +0.005*[#  97]+0.004*[#  41]+0.004*[#  80]+0.004*[#  46]+0.004*[#  70]+
          +0.004*[#  86]+0.004*[#  68]+0.003*[#  56]+0.003*[#  64]+0.003*[#  72]+
          +0.003*[#  78]+0.003*[#  76]+0.002*[#  43]+0.002*[#  52]+0.002*[# 115]+
          +0.002*[#  44]+0.002*[#  63]+0.002*[#  69]+0.002*[#  95]+0.002*[#  48]+
          +0.002*[#  79]+0.002*[# 104]+0.002*[#   3]+0.002*[#  19]+0.002*[# 114]+
          +0.001*[#  30]+0.001*[#  38]+0.001*[#  42]+0.002*[# 113]+0.001*[#  47]+
          +0.001*[#  57]+0.001*[#  40]+0.001*[#  45]+0.001*[#  71]+
    |psi|^2 = 0.345
     e =     4.80498 eV
     psi = 0.026*[#  12]+0.024*[#  97]+0.022*[# 106]+0.017*[#   3]+0.015*[#  75]+
          +0.013*[# 107]+0.013*[#  13]+0.013*[#  98]+0.010*[#  29]+0.010*[#  78]+
          +0.009*[#  21]+0.009*[#  51]+0.008*[#  37]+0.008*[#  43]+0.007*[#  19]+
          +0.007*[#  22]+0.007*[#   4]+0.006*[# 113]+0.006*[#  88]+0.005*[#  64]+
          +0.005*[#  46]+0.005*[#  68]+0.005*[#  80]+0.005*[#  59]+0.005*[#  73]+
          +0.005*[#  56]+0.004*[#   1]+0.004*[# 104]+0.003*[#  65]+0.003*[#  10]+
          +0.003*[#  40]+0.003*[#  66]+0.003*[#  70]+0.003*[#  41]+0.002*[#  72]+
          +0.002*[#  86]+0.002*[#  38]+0.002*[#  89]+0.002*[#  47]+0.002*[#  49]+
          +0.002*[#  52]+0.002*[#  60]+0.002*[#  61]+0.002*[#  79]+0.002*[# 116]+
          +0.002*[#  53]+0.002*[#  55]+0.002*[#  67]+0.001*[#  95]+0.002*[#  96]+
          +0.001*[#  30]+0.001*[#  44]+0.001*[#  76]+0.001*[#  63]+
    |psi|^2 = 0.345
     e =     4.89445 eV
     psi = 0.025*[# 116]+0.018*[# 107]+0.018*[#  22]+0.016*[#  97]+0.012*[#  12]+
          +0.012*[#  89]+0.011*[#  78]+0.011*[#   3]+0.010*[#  88]+0.010*[#   1]+
          +0.010*[# 104]+0.010*[# 113]+0.009*[#  80]+0.008*[#   4]+0.008*[#  29]+
          +0.007*[# 106]+0.007*[#  10]+0.006*[#  43]+0.006*[#  95]+0.005*[#  13]+
          +0.005*[#  31]+0.005*[#  86]+0.005*[#  19]+0.004*[#  21]+0.004*[#  96]+
          +0.003*[#  68]+0.003*[#  46]+0.003*[#  58]+0.003*[#  48]+0.003*[#  65]+
          +0.003*[#  40]+0.002*[#  44]+0.002*[#   2]+0.002*[#  50]+0.002*[#  42]+
          +0.002*[#  52]+0.002*[#  66]+0.002*[#  98]+0.002*[#  11]+0.002*[#  20]+
          +0.002*[#  60]+0.002*[#   5]+0.002*[#  55]+0.002*[#  87]+0.002*[# 117]+
          +0.002*[#  61]+0.002*[# 108]+0.001*[#  63]+0.001*[#  14]+0.001*[#  51]+
          +0.001*[#  53]+0.001*[#  56]+0.001*[#  69]+0.001*[#  75]+0.001*[# 115]+
          +0.001*[#  38]+0.001*[#  99]+0.001*[#  37]+0.001*[#  74]+
    |psi|^2 = 0.319
     e =     4.95563 eV
     psi = 0.013*[#  65]+0.013*[#  98]+0.012*[#  70]+0.011*[#  43]+0.010*[#  66]+
          +0.009*[#  63]+0.008*[#  47]+0.007*[# 107]+0.007*[#  13]+0.007*[#  55]+
          +0.006*[#  72]+0.006*[# 104]+0.006*[#  89]+0.005*[#  12]+0.005*[#  71]+
          +0.005*[#  75]+0.005*[#  54]+0.005*[#  22]+0.004*[#  44]+0.004*[#  78]+
          +0.004*[#   4]+0.004*[#  37]+0.004*[#  73]+0.004*[#  95]+0.004*[#   3]+
          +0.004*[#  88]+0.003*[#  40]+0.003*[# 116]+0.003*[#  41]+0.003*[#  97]+
          +0.003*[#  21]+0.003*[# 113]+0.003*[#   1]+0.003*[#  60]+0.003*[#  62]+
          +0.002*[#  69]+0.002*[#  86]+0.002*[#  50]+0.002*[#  38]+0.002*[#  29]+
          +0.002*[#  39]+0.002*[#  96]+0.001*[#  10]+0.001*[#  59]+0.001*[#  76]+
          +0.001*[#  19]+0.001*[#  58]+0.001*[# 105]+0.001*[#  74]+0.001*[# 106]+
    |psi|^2 = 0.237
     e =     4.97715 eV
     psi = 0.033*[# 113]+0.031*[#   1]+0.029*[# 104]+0.022*[#  11]+0.019*[#  96]+
          +0.008*[#  75]+0.007*[#  37]+0.007*[# 105]+0.007*[#  39]+0.005*[#   2]+
          +0.005*[#  10]+0.005*[#  71]+0.005*[#  95]+0.004*[#  29]+0.004*[# 117]+
          +0.003*[#  22]+0.003*[#  76]+0.003*[#  80]+0.003*[#  44]+0.003*[#  78]+
          +0.003*[# 116]+0.003*[#   5]+0.003*[# 108]+0.003*[#  31]+0.002*[#  49]+
          +0.002*[#  89]+0.002*[#  14]+0.002*[#  38]+0.002*[#  74]+0.002*[#  99]+
          +0.002*[#   4]+0.002*[#  57]+0.002*[#  69]+0.002*[#  66]+0.002*[# 107]+
          +0.001*[#  21]+0.001*[#  77]+0.001*[# 115]+0.001*[#  28]+0.001*[#  47]+
          +0.001*[#  62]+0.001*[#  86]+
    |psi|^2 = 0.266
     e =     5.04557 eV
     psi = 0.024*[# 115]+0.015*[#  88]+0.013*[#  21]+0.012*[#  70]+0.010*[#   3]+
          +0.008*[#  47]+0.007*[# 106]+0.007*[#  30]+0.007*[#  37]+0.007*[#  79]+
          +0.006*[#  29]+0.005*[#  75]+0.004*[#  41]+0.004*[#  61]+0.004*[#  44]+
          +0.004*[# 105]+0.003*[#  66]+0.003*[#  63]+0.003*[#  87]+0.003*[#   4]+
          +0.002*[#  55]+0.002*[#  19]+0.002*[#  49]+0.002*[#  74]+0.002*[# 113]+
          +0.002*[# 116]+0.002*[#  43]+0.002*[#  53]+0.002*[#  73]+0.002*[#  31]+
          +0.001*[#  51]+0.002*[#  72]+0.001*[#  78]+0.001*[#  57]+0.001*[#  12]+
          +0.001*[#  48]+0.001*[#  62]+0.001*[#  89]+0.001*[#  80]+
    |psi|^2 = 0.196
     e =     5.12628 eV
     psi = 0.030*[#  47]+0.019*[#  70]+0.015*[# 116]+0.013*[#  80]+0.012*[#  62]+
          +0.012*[#  54]+0.010*[#  44]+0.009*[# 107]+0.009*[#  31]+0.008*[#   4]+
          +0.007*[#  89]+0.007*[#  55]+0.006*[#  66]+0.006*[#  75]+0.006*[#  19]+
          +0.006*[#  39]+0.005*[#  22]+0.005*[#  71]+0.005*[#   2]+0.005*[#  10]+
          +0.005*[#  37]+0.005*[#  58]+0.004*[#  28]+0.004*[#  50]+0.004*[#  51]+
          +0.004*[# 114]+0.004*[#  59]+0.003*[#  40]+0.003*[#  77]+0.003*[#  63]+
          +0.003*[# 105]+0.003*[#   1]+0.002*[#  86]+0.002*[#  65]+0.002*[#  95]+
          +0.002*[#  41]+0.002*[#  43]+0.002*[#  53]+0.002*[#  72]+0.002*[#  73]+
          +0.002*[#  29]+0.002*[#  76]+0.001*[#  20]+0.001*[# 104]+0.001*[# 115]+
          +0.001*[#   3]+0.001*[#  38]+0.001*[#  98]+
    |psi|^2 = 0.282
     e =     5.22979 eV
     psi = 0.020*[#  97]+0.018*[#  12]+0.018*[#  88]+0.017*[#  21]+0.013*[#  22]+
          +0.012*[#  57]+0.012*[#  89]+0.012*[# 106]+0.011*[#  49]+0.011*[# 107]+
          +0.009*[#  98]+0.009*[#  43]+0.009*[#  65]+0.009*[#   3]+0.009*[#  13]+
          +0.009*[# 113]+0.008*[#  29]+0.007*[#   4]+0.006*[#   1]+0.006*[#  75]+
          +0.006*[#  78]+0.005*[# 104]+0.005*[#  37]+0.005*[#  71]+0.004*[#  54]+
          +0.004*[#  31]+0.004*[#  69]+0.004*[#  39]+0.004*[#  62]+0.004*[#  30]+
          +0.004*[#  95]+0.003*[#  10]+0.003*[#  20]+0.003*[#  45]+0.003*[#  48]+
          +0.003*[#  79]+0.003*[#  87]+0.003*[#  19]+0.003*[#  80]+0.003*[#  67]+
          +0.002*[#  47]+0.002*[#  86]+0.002*[# 116]+0.002*[#  11]+0.002*[#  41]+
          +0.002*[#  42]+0.002*[#  53]+0.002*[#   2]+0.002*[#  50]+0.001*[#  70]+
          +0.002*[#  73]+0.001*[#  58]+0.001*[#  61]+0.001*[#  74]+0.001*[#  66]+
          +0.001*[#  96]+0.001*[#  44]+
    |psi|^2 = 0.340
     e =     5.26637 eV
     psi = 0.024*[#  13]+0.017*[#   4]+0.017*[#  98]+0.016*[#  22]+0.015*[# 113]+
          +0.015*[#  20]+0.014*[# 107]+0.012*[#  89]+0.011*[#  87]+0.009*[# 116]+
          +0.007*[# 104]+0.007*[#   1]+0.006*[#  38]+0.006*[#  78]+0.005*[#  31]+
          +0.005*[#  10]+0.005*[#  95]+0.004*[#  80]+0.004*[#  29]+0.004*[#   2]+
          +0.003*[#  86]+0.003*[#  75]+0.003*[# 115]+0.003*[# 105]+0.003*[# 114]+
          +0.002*[#  19]+0.002*[#  28]+0.002*[#  77]+0.002*[#  76]+0.002*[#  64]+
          +0.002*[#  88]+0.001*[#  46]+0.001*[#  41]+0.001*[#  73]+0.001*[#  97]+
          +0.001*[# 117]+0.001*[#  42]+0.001*[# 108]+0.001*[#   5]+0.001*[#  56]+
          +0.001*[#  70]+0.001*[#  79]+0.001*[#  96]+0.001*[# 106]+
    |psi|^2 = 0.264
     e =     5.34793 eV
     psi = 0.053*[#  12]+0.043*[#  97]+0.028*[#  21]+0.027*[#  88]+0.020*[#   3]+
          +0.016*[# 106]+0.012*[#  98]+0.012*[#  13]+0.009*[#  89]+0.008*[#   4]+
          +0.005*[#  22]+0.006*[#  30]+0.006*[#  79]+0.004*[#  80]+0.004*[#  70]+
          +0.003*[#  69]+0.003*[#  78]+0.003*[#  86]+0.003*[#  11]+0.002*[#  38]+
          +0.002*[#  76]+0.002*[#  75]+0.002*[#  20]+0.002*[# 104]+0.002*[#  43]+
          +0.002*[#  61]+0.002*[# 107]+0.001*[#  37]+0.001*[#  73]+0.001*[#  60]+
          +0.001*[#  63]+0.001*[# 114]+0.001*[# 105]+0.001*[# 113]+0.001*[#  39]+
          +0.001*[#  53]+0.001*[#  95]+0.001*[# 115]+
    |psi|^2 = 0.311
     e =     5.36891 eV
     psi = 0.034*[#  97]+0.033*[#  13]+0.033*[#  98]+0.029*[#  12]+0.022*[#  21]+
          +0.021*[#  22]+0.019*[#  88]+0.018*[#  89]+0.014*[#   3]+0.011*[# 106]+
          +0.010*[# 107]+0.009*[#   4]+0.009*[#  47]+0.007*[# 113]+0.007*[#  31]+
          +0.006*[#  80]+0.005*[#  70]+0.004*[#  20]+0.004*[#  30]+0.004*[#  53]+
          +0.004*[#   2]+0.004*[#  87]+0.003*[#  48]+0.003*[#  61]+0.003*[#  79]+
          +0.003*[#   1]+0.002*[#  55]+0.002*[#  69]+0.002*[#  10]+0.002*[# 104]+
          +0.002*[# 105]+0.002*[#  29]+0.002*[#  59]+0.001*[#  76]+0.001*[#  96]+
          +0.001*[#  65]+0.001*[#  78]+0.001*[# 114]+0.001*[#  54]+
    |psi|^2 = 0.360
     e =     5.47107 eV
     psi = 0.013*[#  48]+0.010*[#  69]+0.008*[#  19]+0.008*[# 114]+0.008*[#  86]+
          +0.006*[#  29]+0.005*[#  96]+0.005*[#  37]+0.005*[#  44]+0.005*[#  54]+
          +0.004*[#  66]+0.004*[#  62]+0.003*[#  52]+0.003*[#  78]+0.003*[#  13]+
          +0.003*[#  58]+0.003*[#  41]+0.003*[#  56]+0.003*[#  60]+0.003*[#  68]+
          +0.003*[#  75]+0.003*[#  11]+0.002*[#   1]+0.002*[#  72]+0.002*[#  10]+
          +0.002*[#  40]+0.002*[#  50]+0.002*[#  73]+0.002*[#  12]+0.002*[# 107]+
          +0.002*[#  22]+0.002*[#  59]+0.002*[#  64]+0.002*[#  77]+0.002*[#  46]+
          +0.002*[#  49]+0.002*[#  51]+0.002*[#  71]+0.001*[#  39]+0.001*[#  31]+
          +0.001*[#  97]+0.001*[#  21]+0.001*[#  28]+0.001*[#  95]+0.001*[#  76]+
    |psi|^2 = 0.163
     e =     5.52184 eV
     psi = 0.003*[#  44]+0.003*[#  40]+0.003*[#  66]+0.002*[#  41]+0.002*[#  37]+
          +0.002*[#  72]+0.002*[#  47]+0.002*[#  76]+0.002*[#  12]+0.002*[#  20]+
          +0.002*[#  22]+0.002*[#  87]+0.002*[# 106]+0.002*[#  73]+0.002*[#  98]+
          +0.002*[# 116]+0.001*[#  11]+0.001*[#  19]+0.001*[#  31]+0.001*[#  71]+
          +0.001*[# 105]+0.001*[#   2]+0.001*[#   4]+0.001*[#  38]+0.001*[#  45]+
          +0.001*[#  55]+0.001*[#  65]+
    |psi|^2 = 0.067
     e =     5.54625 eV
     psi = 0.018*[#  13]+0.013*[#  98]+0.012*[#  22]+0.012*[# 113]+0.011*[# 107]+
          +0.011*[#  87]+0.011*[#  89]+0.011*[#   4]+0.011*[# 104]+0.009*[#  20]+
          +0.009*[# 116]+0.007*[#  95]+0.007*[#   1]+0.005*[#  10]+0.005*[#  80]+
          +0.004*[#  31]+0.004*[#  75]+0.004*[#  78]+0.004*[#   3]+0.004*[#  12]+
          +0.003*[#  88]+0.003*[#  97]+0.003*[# 114]+0.003*[#  70]+0.002*[#  79]+
          +0.002*[#  86]+0.002*[#  76]+0.002*[#  29]+0.002*[#  37]+0.002*[#  38]+
          +0.002*[#  21]+0.002*[#  73]+0.002*[# 106]+0.002*[#  28]+0.002*[#  77]+
          +0.002*[# 108]+0.002*[# 117]+0.002*[#  11]+0.002*[#  63]+0.001*[#  96]+
          +0.001*[#   5]+0.001*[#  30]+0.001*[#  62]+0.001*[#  66]+
    |psi|^2 = 0.236
     e =     5.58072 eV
     psi = 0.010*[#  97]+0.009*[# 106]+0.009*[#  21]+0.009*[#  12]+0.008*[#  88]+
          +0.005*[#   3]+0.004*[#  98]+0.003*[#  30]+0.003*[#  61]+0.003*[#  13]+
          +0.002*[#  22]+0.002*[#  70]+0.002*[#   4]+0.002*[#  37]+0.002*[#  89]+
          +0.002*[#  75]+0.002*[#  79]+0.002*[#  48]+0.001*[#  41]+0.002*[#  69]+
          +0.002*[# 107]+0.002*[# 114]+0.001*[#  96]+0.001*[#  73]+0.001*[#  53]+
          +0.001*[#  57]+0.001*[#  19]+0.001*[#  86]+0.001*[#  11]+0.001*[#  29]+
          +0.001*[#  38]+0.001*[#  49]+
    |psi|^2 = 0.110
     e =     5.64049 eV
     psi = 0.007*[#  48]+0.007*[#  86]+0.006*[#  11]+0.006*[#  78]+0.005*[#  61]+
          +0.005*[# 105]+0.004*[#  19]+0.004*[#  49]+0.004*[#  96]+0.004*[#   2]+
          +0.004*[#  51]+0.003*[#  20]+0.003*[#  65]+0.003*[#  29]+0.002*[#  69]+
          +0.002*[#  38]+0.002*[# 114]+0.002*[# 106]+0.002*[# 115]+0.001*[#  47]+
          +0.002*[#  70]+0.001*[#  28]+0.001*[#   3]+0.001*[#  10]+
    |psi|^2 = 0.103
     e =     5.72901 eV
     psi = 0.009*[#   3]+0.008*[#  69]+0.007*[#  87]+0.006*[#  38]+0.005*[#   2]+
          +0.006*[# 104]+0.005*[# 114]+0.005*[#  43]+0.005*[# 115]+0.005*[#  57]+
          +0.005*[#  59]+0.005*[#  53]+0.004*[# 113]+0.004*[#  95]+0.004*[#  42]+
          +0.004*[#  75]+0.004*[# 116]+0.004*[#  12]+0.003*[# 105]+0.003*[#  98]+
          +0.002*[#  76]+0.002*[#  96]+0.002*[# 107]+0.002*[#  65]+0.002*[#  74]+
          +0.002*[#  10]+0.002*[#  73]+0.002*[#   1]+0.002*[#  41]+0.002*[#  61]+
          +0.002*[#  77]+0.001*[#  21]+0.001*[#  72]+0.001*[#  11]+0.001*[#  88]+
          +0.001*[#  29]+0.001*[#  40]+0.001*[#  44]+0.001*[# 106]+
    |psi|^2 = 0.151
     e =     5.77499 eV
     psi = 0.009*[# 106]+0.007*[# 115]+0.007*[# 114]+0.006*[#  61]+0.006*[#  97]+
          +0.006*[#  53]+0.006*[# 105]+0.004*[#  11]+0.004*[#  88]+0.003*[#   4]+
          +0.003*[#  65]+0.003*[#   3]+0.003*[#  48]+0.003*[#  13]+0.003*[#  75]+
          +0.003*[# 116]+0.003*[#  49]+0.002*[#  20]+0.002*[#  21]+0.002*[#  29]+
          +0.002*[#  50]+0.002*[#  87]+0.002*[#  19]+0.002*[#  51]+0.002*[#  57]+
          +0.002*[# 107]+0.002*[#  22]+0.002*[#  47]+0.002*[#  37]+0.002*[#  58]+
          +0.002*[#  89]+0.002*[#  67]+0.002*[#  96]+0.001*[#  66]+0.002*[#  72]+
          +0.001*[#  12]+0.001*[#  62]+0.001*[#  98]+0.001*[#  44]+0.001*[# 113]+
          +0.001*[#   2]+0.001*[#  41]+0.001*[#  68]+0.001*[#  71]+0.001*[#  73]+
          +0.001*[#  76]+0.001*[#  78]+
    |psi|^2 = 0.146
     e =     5.82068 eV
     psi = 0.007*[# 116]+0.006*[#  37]+0.005*[#   4]+0.005*[# 106]+0.004*[# 114]+
          +0.003*[#  75]+0.003*[# 115]+0.003*[#  57]+0.003*[#  13]+0.003*[#   1]+
          +0.003*[#  41]+0.003*[# 107]+0.003*[# 113]+0.002*[#  73]+0.002*[#  10]+
          +0.002*[#  76]+0.002*[#  20]+0.002*[#  49]+0.002*[#  53]+0.002*[#  58]+
          +0.002*[#   3]+0.002*[#  19]+0.002*[#  29]+0.002*[#  51]+0.002*[#  68]+
          +0.002*[#  95]+0.002*[#  97]+0.001*[#  40]+0.002*[# 104]+0.001*[#   2]+
          +0.001*[#  22]+0.001*[#  43]+0.001*[#  46]+0.001*[#  55]+0.001*[#  65]+
          +0.001*[#  86]+0.001*[#  98]+
    |psi|^2 = 0.109
     e =     5.83450 eV
     psi = 0.006*[# 116]+0.005*[#   4]+0.005*[#  13]+0.004*[#   3]+0.004*[#  37]+
          +0.004*[# 106]+0.004*[#  21]+0.004*[# 115]+0.003*[#  86]+0.003*[#  31]+
          +0.003*[#  75]+0.003*[#  20]+0.003*[#  95]+0.003*[#  12]+0.003*[#  28]+
          +0.003*[#  87]+0.003*[#  10]+0.003*[#  22]+0.002*[#  19]+0.002*[#  78]+
          +0.002*[#  97]+0.002*[# 105]+0.002*[#  80]+0.002*[#  30]+0.002*[#  77]+
          +0.002*[#  88]+0.002*[#  44]+0.002*[#  43]+0.002*[#  59]+0.002*[# 107]+
          +0.001*[#   2]+0.002*[#  39]+0.002*[#  64]+0.001*[#  74]+0.001*[#  76]+
          +0.001*[#   1]+0.001*[#  40]+0.001*[#  41]+0.001*[#  29]+0.001*[#  61]+
          +0.001*[#  65]+0.001*[# 104]+0.001*[#  38]+0.001*[#  42]+0.001*[#  66]+
          +0.001*[# 113]+
    |psi|^2 = 0.127

Lowdin Charges: 

     Atom #   1: total charge =  10.9945, s =  0.9057, p =  0.3878, d =  9.7010, 
     Atom #   2: total charge =  11.0207, s =  0.9596, p =  0.3558, d =  9.7052, 
     Atom #   3: total charge =  11.1271, s =  0.9832, p =  0.4275, d =  9.7163, 
     Atom #   4: total charge =  11.0530, s =  0.9928, p =  0.3090, d =  9.7512, 
     Atom #   5: total charge =   0.6430, s =  0.6430, p =  0.0000, d =  0.0000, 
     Atom #   6: total charge =   0.6426, s =  0.6426, p =  0.0000, d =  0.0000, 
     Atom #   7: total charge =   5.4362, s =  1.2749, p =  4.1613, d =  0.0000, 
     Atom #   8: total charge =   3.8506, s =  0.8856, p =  2.9651, d =  0.0000, 
     Atom #   9: total charge =   0.7871, s =  0.7871, p =  0.0000, d =  0.0000, 
     Atom #  10: total charge =   0.7890, s =  0.7890, p =  0.0000, d =  0.0000, 
     Atom #  11: total charge =   4.1496, s =  0.9537, p =  3.1959, d =  0.0000, 
     Atom #  12: total charge =   4.1513, s =  0.9543, p =  3.1970, d =  0.0000, 
     Atom #  13: total charge =   4.1516, s =  0.9545, p =  3.1971, d =  0.0000, 
     Atom #  14: total charge =   4.1483, s =  0.9539, p =  3.1944, d =  0.0000, 
     Atom #  15: total charge =   3.8513, s =  0.8860, p =  2.9654, d =  0.0000, 
     Atom #  16: total charge =   0.7887, s =  0.7887, p =  0.0000, d =  0.0000, 
     Atom #  17: total charge =   0.7875, s =  0.7875, p =  0.0000, d =  0.0000, 
     Atom #  18: total charge =   5.4369, s =  1.2761, p =  4.1607, d =  0.0000, 
     Atom #  19: total charge =   0.6436, s =  0.6436, p =  0.0000, d =  0.0000, 
     Atom #  20: total charge =   0.6429, s =  0.6429, p =  0.0000, d =  0.0000, 
     Atom #  21: total charge =  11.0533, s =  0.9937, p =  0.3085, d =  9.7512, 
     Atom #  22: total charge =  11.1274, s =  0.9805, p =  0.4307, d =  9.7162, 
     Atom #  23: total charge =  11.0186, s =  0.9586, p =  0.3557, d =  9.7043, 
     Atom #  24: total charge =  10.9964, s =  0.9073, p =  0.3870, d =  9.7021, 
     Atom #  25: total charge =  10.9878, s =  0.9763, p =  0.3283, d =  9.6831, 
     Spilling Parameter:   0.0051
