
     Program PWSCF v.5.0.2 (svn rev. 9392) starts on 17Apr2014 at 20: 1:48 

     This program is part of the open-source Quantum ESPRESSO suite
     for quantum simulation of materials; please cite
         "P. Giannozzi et al., J. Phys.:Condens. Matter 21 395502 (2009);
          URL http://www.quantum-espresso.org", 
     in publications or presentations arising from this work. More details at
     http://www.quantum-espresso.org/quote.php

     Parallel version (MPI), running on     6 processors
     R & G space division:  proc/nbgrp/npool/nimage =       6

     Current dimensions of program PWSCF are:
     Max number of different atomic species (ntypx) = 10
     Max number of k-points (npk) =  40000
     Max angular momentum in pseudopotentials (lmaxx) =  3
     Reading input from /home/ferretti/want/tests/test15/scf.in

     IMPORTANT: XC functional enforced from input :
     Exchange-correlation      = PBE ( 1 4 3 4 0)
     EXX-fraction              =        0.00
     Any further DFT definition will be discarded
     Please, verify this is what you really want


     Subspace diagonalization in iterative solution of the eigenvalue problem:
     a serial algorithm will be used

 
     Parallelization info
     --------------------
     sticks:   dense  smooth     PW     G-vecs:    dense   smooth      PW
     Min         524     263     66                80306    28381    3634
     Max         525     264     67                80319    28420    3643
     Sum        3149    1581    401               481889   170431   21833
 


     bravais-lattice index     =            8
     lattice parameter (alat)  =      15.0000  a.u.
     unit-cell volume          =   12219.9075 (a.u.)^3
     number of atoms/cell      =           25
     number of atomic types    =            4
     number of electrons       =       141.00
     number of Kohn-Sham states=           85
     kinetic-energy cutoff     =      22.0000  Ry
     charge density cutoff     =     176.0000  Ry
     convergence threshold     =      1.0E-08
     mixing beta               =       0.3000
     number of iterations used =            8  plain     mixing
     Exchange-correlation      = PBE ( 1 4 3 4 0)
     EXX-fraction              =        0.00

     celldm(1)=  15.000000  celldm(2)=   1.000000  celldm(3)=   3.620713
     celldm(4)=   0.000000  celldm(5)=   0.000000  celldm(6)=   0.000000

     crystal axes: (cart. coord. in units of alat)
               a(1) = (   1.000000   0.000000   0.000000 )  
               a(2) = (   0.000000   1.000000   0.000000 )  
               a(3) = (   0.000000   0.000000   3.620713 )  

     reciprocal axes: (cart. coord. in units 2 pi/alat)
               b(1) = (  1.000000  0.000000  0.000000 )  
               b(2) = (  0.000000  1.000000  0.000000 )  
               b(3) = (  0.000000  0.000000  0.276189 )  


     PseudoPot. # 1 for Au read from file:
     ../pseudo/Au.pw91-d-van.UPF
     MD5 check sum: dc02f59ef2ea6b62d9e9493d750aaae0
     Pseudo is Ultrasoft, Zval = 11.0
     Generated by new atomic code, or converted to UPF format
     Using radial grid of  939 points,  6 beta functions with: 
                l(1) =   0
                l(2) =   0
                l(3) =   1
                l(4) =   1
                l(5) =   2
                l(6) =   2
     Q(r) pseudized with  3 coefficients,  rinner =    1.600   1.800   1.600
                                                       1.600   1.800

     PseudoPot. # 2 for C  read from file:
     ../pseudo/C.pbe-van_bm.UPF
     MD5 check sum: 1a69bf6b8db32088f5b2163dbdb77a27
     Pseudo is Ultrasoft, Zval =  4.0
     Generated by new atomic code, or converted to UPF format
     Using radial grid of  721 points,  4 beta functions with: 
                l(1) =   0
                l(2) =   0
                l(3) =   1
                l(4) =   1
     Q(r) pseudized with  8 coefficients,  rinner =    0.800   0.800   0.800


     PseudoPot. # 3 for N  read from file:
     ../pseudo/N.pbe-van_bm.UPF
     MD5 check sum: 90d10febe142ad51ac9d5be1deb811c4
     Pseudo is Ultrasoft, Zval =  5.0
     Generated by new atomic code, or converted to UPF format
     Using radial grid of  729 points,  4 beta functions with: 
                l(1) =   0
                l(2) =   0
                l(3) =   1
                l(4) =   1
     Q(r) pseudized with  8 coefficients,  rinner =    0.800   0.800   0.800


     PseudoPot. # 4 for H  read from file:
     ../pseudo/H.pbe-van_bm.UPF
     MD5 check sum: b5ee9d7bfd3a09ee7748110bda690ff7
     Pseudo is Ultrasoft, Zval =  1.0
     Generated by new atomic code, or converted to UPF format
     Using radial grid of  615 points,  1 beta functions with: 
                l(1) =   0
     Q(r) pseudized with  8 coefficients,  rinner =    0.800

     atomic species   valence    mass     pseudopotential
        Au            11.00   196.96650     Au( 1.00)
        C              4.00    12.01000     C ( 1.00)
        N              5.00    14.01000     N ( 1.00)
        H              1.00     1.00800     H ( 1.00)

     No symmetry found



   Cartesian axes

     site n.     atom                  positions (alat units)
         1           Au  tau(   1) = (   0.1570698   0.1040872  -1.4972767  )
         2           Au  tau(   2) = (   0.1570698   0.1040872  -1.1823223  )
         3           Au  tau(   3) = (   0.1570698   0.1040872  -0.8673680  )
         4           Au  tau(   4) = (   0.1570698   0.1040872  -0.5524136  )
         5           H   tau(   5) = (   0.3750662   0.2710840  -0.3488349  )
         6           H   tau(   6) = (   0.1898805   0.3652598  -0.3382009  )
         7           N   tau(   7) = (   0.2529507   0.2571206  -0.3163008  )
         8           C   tau(   8) = (   0.2242489   0.1850647  -0.1569272  )
         9           H   tau(   9) = (   0.4588414   0.0493594  -0.1506940  )
        10           H   tau(  10) = (  -0.0199890   0.2989157  -0.1260552  )
        11           C   tau(  11) = (   0.0727985   0.2140259  -0.0720060  )
        12           C   tau(  12) = (   0.3412209   0.0747916  -0.0855031  )
        13           C   tau(  13) = (   0.3079592  -0.0036735   0.0672118  )
        14           C   tau(  14) = (   0.0396808   0.1358858   0.0806316  )
        15           C   tau(  15) = (   0.1569889   0.0260220   0.1525051  )
        16           H   tau(  16) = (   0.4001979  -0.0896119   0.1205066  )
        17           H   tau(  17) = (  -0.0780865   0.1611724   0.1456550  )
        18           N   tau(  18) = (   0.1276316  -0.0445301   0.3126250  )
        19           H   tau(  19) = (   0.0062002  -0.0721377   0.3383633  )
        20           H   tau(  20) = (   0.2014536  -0.1438686   0.3416505  )
        21           Au  tau(  21) = (   0.1785466   0.1286613   0.5486634  )
        22           Au  tau(  22) = (   0.1785466   0.1286613   0.8636178  )
        23           Au  tau(  23) = (   0.1785466   0.1286613   1.1785722  )
        24           Au  tau(  24) = (   0.1785466   0.1286613   1.4935265  )
        25           Au  tau(  25) = (   0.1785466   0.1286613   1.8084809  )

     number of k points=     2  gaussian smearing, width (Ry)=  0.0100
                       cart. coord. in units 2pi/alat
        k(    1) = (   0.0000000   0.0000000   0.0345236), wk =   1.0000000
        k(    2) = (   0.0000000   0.0000000   0.1035708), wk =   1.0000000

     Dense  grid:   481889 G-vectors     FFT dimensions: (  64,  64, 240)

     Smooth grid:   170431 G-vectors     FFT dimensions: (  45,  45, 180)

     Largest allocated arrays     est. size (Mb)     dimensions
        Kohn-Sham Wavefunctions         4.61 Mb     (   3557,   85)
        NL pseudopotentials            12.70 Mb     (   3557,  234)
        Each V/rho on FFT grid          2.50 Mb     ( 163840)
        Each G-vector array             0.61 Mb     (  80319)
        G-vector shells                 0.16 Mb     (  21568)
     Largest temporary arrays     est. size (Mb)     dimensions
        Auxiliary wavefunctions        18.45 Mb     (   3557,  340)
        Each subspace H/S matrix        1.76 Mb     ( 340, 340)
        Each <psi_i|beta_j> matrix      0.30 Mb     (    234,   85)
        Arrays for rho mixing          20.00 Mb     ( 163840,   8)

     Initial potential from superposition of free atoms
     Check: negative starting charge=   -0.000288

     starting charge  140.89025, renormalised to  141.00000

     negative rho (up, down):  0.288E-03 0.000E+00
     Starting wfc are  121 randomized atomic wfcs

     total cpu time spent up to now is        9.5 secs

     per-process dynamical memory:    79.8 Mb

     Self-consistent Calculation

     iteration #  1     ecut=    22.00 Ry     beta=0.30
     Davidson diagonalization with overlap
     ethr =  1.00E-02,  avg # of iterations =  2.0

     negative rho (up, down):  0.320E-03 0.000E+00

     total cpu time spent up to now is       21.8 secs

     total energy              =    -722.63936136 Ry
     Harris-Foulkes estimate   =    -723.53446704 Ry
     estimated scf accuracy    <       2.37692075 Ry

     iteration #  2     ecut=    22.00 Ry     beta=0.30
     Davidson diagonalization with overlap
     ethr =  1.69E-03,  avg # of iterations =  5.5

     negative rho (up, down):  0.470E-03 0.000E+00

     total cpu time spent up to now is       34.7 secs

     total energy              =    -722.41501449 Ry
     Harris-Foulkes estimate   =    -723.08043787 Ry
     estimated scf accuracy    <       3.01070850 Ry

     iteration #  3     ecut=    22.00 Ry     beta=0.30
     Davidson diagonalization with overlap
     ethr =  1.69E-03,  avg # of iterations =  4.0

     negative rho (up, down):  0.780E-03 0.000E+00

     total cpu time spent up to now is       46.8 secs

     total energy              =    -722.72610695 Ry
     Harris-Foulkes estimate   =    -722.99043212 Ry
     estimated scf accuracy    <       1.42686773 Ry

     iteration #  4     ecut=    22.00 Ry     beta=0.30
     Davidson diagonalization with overlap
     ethr =  1.01E-03,  avg # of iterations =  2.5

     negative rho (up, down):  0.112E-02 0.000E+00

     total cpu time spent up to now is       58.3 secs

     total energy              =    -722.74117005 Ry
     Harris-Foulkes estimate   =    -722.80970046 Ry
     estimated scf accuracy    <       0.35781456 Ry

     iteration #  5     ecut=    22.00 Ry     beta=0.30
     Davidson diagonalization with overlap
     ethr =  2.54E-04,  avg # of iterations =  7.0

     negative rho (up, down):  0.155E-02 0.000E+00

     total cpu time spent up to now is       70.9 secs

     total energy              =    -722.72549849 Ry
     Harris-Foulkes estimate   =    -722.81918928 Ry
     estimated scf accuracy    <       0.83891176 Ry

     iteration #  6     ecut=    22.00 Ry     beta=0.30
     Davidson diagonalization with overlap
     ethr =  2.54E-04,  avg # of iterations =  2.5

     negative rho (up, down):  0.229E-02 0.000E+00

     total cpu time spent up to now is       82.4 secs

     total energy              =    -722.76083779 Ry
     Harris-Foulkes estimate   =    -722.78112594 Ry
     estimated scf accuracy    <       0.10428389 Ry

     iteration #  7     ecut=    22.00 Ry     beta=0.30
     Davidson diagonalization with overlap
     ethr =  7.40E-05,  avg # of iterations =  5.0

     negative rho (up, down):  0.342E-02 0.000E+00

     total cpu time spent up to now is       94.6 secs

     total energy              =    -722.76313600 Ry
     Harris-Foulkes estimate   =    -722.76855807 Ry
     estimated scf accuracy    <       0.02431693 Ry

     iteration #  8     ecut=    22.00 Ry     beta=0.30
     Davidson diagonalization with overlap
     ethr =  1.72E-05,  avg # of iterations =  4.0

     negative rho (up, down):  0.413E-02 0.000E+00

     total cpu time spent up to now is      106.7 secs

     total energy              =    -722.76508262 Ry
     Harris-Foulkes estimate   =    -722.76631398 Ry
     estimated scf accuracy    <       0.00777043 Ry

     iteration #  9     ecut=    22.00 Ry     beta=0.30
     Davidson diagonalization with overlap
     ethr =  5.51E-06,  avg # of iterations =  4.5

     negative rho (up, down):  0.450E-02 0.000E+00

     total cpu time spent up to now is      118.6 secs

     total energy              =    -722.76563513 Ry
     Harris-Foulkes estimate   =    -722.76578639 Ry
     estimated scf accuracy    <       0.00074947 Ry

     iteration # 10     ecut=    22.00 Ry     beta=0.30
     Davidson diagonalization with overlap
     ethr =  5.32E-07,  avg # of iterations =  4.5

     negative rho (up, down):  0.479E-02 0.000E+00

     total cpu time spent up to now is      131.4 secs

     total energy              =    -722.76573011 Ry
     Harris-Foulkes estimate   =    -722.76582080 Ry
     estimated scf accuracy    <       0.00066580 Ry

     iteration # 11     ecut=    22.00 Ry     beta=0.30
     Davidson diagonalization with overlap
     ethr =  4.72E-07,  avg # of iterations =  1.0

     negative rho (up, down):  0.500E-02 0.000E+00

     total cpu time spent up to now is      142.8 secs

     total energy              =    -722.76577130 Ry
     Harris-Foulkes estimate   =    -722.76577955 Ry
     estimated scf accuracy    <       0.00007419 Ry

     iteration # 12     ecut=    22.00 Ry     beta=0.30
     Davidson diagonalization with overlap
     ethr =  5.26E-08,  avg # of iterations =  2.0

     negative rho (up, down):  0.513E-02 0.000E+00

     total cpu time spent up to now is      154.4 secs

     total energy              =    -722.76577830 Ry
     Harris-Foulkes estimate   =    -722.76577853 Ry
     estimated scf accuracy    <       0.00001544 Ry

     iteration # 13     ecut=    22.00 Ry     beta=0.30
     Davidson diagonalization with overlap
     ethr =  1.09E-08,  avg # of iterations =  2.5

     negative rho (up, down):  0.519E-02 0.000E+00

     total cpu time spent up to now is      166.1 secs

     total energy              =    -722.76577986 Ry
     Harris-Foulkes estimate   =    -722.76578011 Ry
     estimated scf accuracy    <       0.00000401 Ry

     iteration # 14     ecut=    22.00 Ry     beta=0.30
     Davidson diagonalization with overlap
     ethr =  2.84E-09,  avg # of iterations =  2.5

     negative rho (up, down):  0.521E-02 0.000E+00

     total cpu time spent up to now is      178.3 secs

     total energy              =    -722.76578067 Ry
     Harris-Foulkes estimate   =    -722.76578061 Ry
     estimated scf accuracy    <       0.00000091 Ry

     iteration # 15     ecut=    22.00 Ry     beta=0.30
     Davidson diagonalization with overlap
     ethr =  6.42E-10,  avg # of iterations =  2.0

     negative rho (up, down):  0.523E-02 0.000E+00

     total cpu time spent up to now is      190.2 secs

     total energy              =    -722.76578087 Ry
     Harris-Foulkes estimate   =    -722.76578082 Ry
     estimated scf accuracy    <       0.00000059 Ry

     iteration # 16     ecut=    22.00 Ry     beta=0.30
     Davidson diagonalization with overlap
     ethr =  4.17E-10,  avg # of iterations =  1.0

     negative rho (up, down):  0.524E-02 0.000E+00

     total cpu time spent up to now is      201.6 secs

     total energy              =    -722.76578096 Ry
     Harris-Foulkes estimate   =    -722.76578093 Ry
     estimated scf accuracy    <       0.00000024 Ry

     iteration # 17     ecut=    22.00 Ry     beta=0.30
     Davidson diagonalization with overlap
     ethr =  1.69E-10,  avg # of iterations =  1.0

     negative rho (up, down):  0.525E-02 0.000E+00

     total cpu time spent up to now is      212.9 secs

     total energy              =    -722.76578100 Ry
     Harris-Foulkes estimate   =    -722.76578098 Ry
     estimated scf accuracy    <       0.00000002 Ry

     iteration # 18     ecut=    22.00 Ry     beta=0.30
     Davidson diagonalization with overlap
     ethr =  1.67E-11,  avg # of iterations =  3.0

     negative rho (up, down):  0.526E-02 0.000E+00

     total cpu time spent up to now is      225.5 secs

     End of self-consistent calculation

          k = 0.0000 0.0000 0.0345 ( 21293 PWs)   bands (ev):

   -23.3886 -23.2267 -20.5888 -18.3692 -17.7211 -15.2916 -14.8260 -13.1660
   -13.0156 -12.4261 -12.0673 -10.4709 -10.2421  -9.9927  -9.8856  -9.6938
    -9.0893  -8.6177  -8.2915  -8.0199  -7.7394  -7.4650  -6.6418  -6.4398
    -6.4332  -6.3102  -6.2508  -6.1319  -6.0953  -6.0371  -5.7720  -5.7360
    -5.6023  -5.4375  -5.2684  -5.1709  -5.1598  -5.1434  -5.1318  -4.9203
    -4.8477  -4.8119  -4.8024  -4.7553  -4.7351  -4.7338  -4.7032  -4.5790
    -4.5747  -4.5316  -4.4944  -4.4933  -4.3879  -4.3546  -4.3167  -4.3134
    -4.2377  -4.2338  -4.1883  -4.1749  -4.1589  -4.1173  -4.0409  -3.9505
    -3.6764  -3.6656  -3.6229  -3.4904  -3.4271  -3.3099  -3.2247  -2.8347
    -1.6902  -1.0272  -0.6251  -0.4513  -0.2647   0.3758   0.6425   0.6824
     0.7502   0.7857   0.8986   1.1955   1.2104

          k = 0.0000 0.0000 0.1036 ( 21277 PWs)   bands (ev):

   -23.3886 -23.2267 -20.5888 -18.3690 -17.7210 -15.2917 -14.8254 -13.1660
   -13.0151 -12.4256 -12.0666 -10.4705 -10.2418  -9.9925  -9.8856  -9.6936
    -9.0877  -8.6420  -8.2109  -8.0205  -7.8819  -7.3460  -6.6776  -6.4371
    -6.4138  -6.3243  -6.3089  -6.1166  -6.0599  -6.0130  -5.8363  -5.7387
    -5.6261  -5.3135  -5.2631  -5.1809  -5.1604  -5.1435  -5.1021  -4.9762
    -4.9006  -4.8118  -4.8060  -4.7557  -4.7351  -4.7337  -4.6545  -4.5809
    -4.5746  -4.5623  -4.4954  -4.4934  -4.3853  -4.3304  -4.3167  -4.3043
    -4.2379  -4.2343  -4.1886  -4.1762  -4.1596  -4.1367  -4.0480  -3.9436
    -3.6757  -3.6643  -3.5857  -3.5209  -3.4305  -3.3106  -3.2763  -2.7502
    -1.7408  -1.0288  -0.7153  -0.3512  -0.1192   0.2212   0.6462   0.6901
     0.7082   0.7369   0.9422   1.1576   1.2507

     the Fermi energy is    -3.2094 ev

!    total energy              =    -722.76578102 Ry
     Harris-Foulkes estimate   =    -722.76578100 Ry
     estimated scf accuracy    <          3.8E-09 Ry

     The total energy is the sum of the following terms:

     one-electron contribution =   -1215.79879487 Ry
     hartree contribution      =     654.26672478 Ry
     xc contribution           =    -129.65530270 Ry
     ewald contribution        =     -31.56967252 Ry
     smearing contrib. (-TS)   =      -0.00873571 Ry

     convergence has been achieved in  18 iterations

     Writing output data file au_bda.save
 
     init_run     :      9.25s CPU      9.34s WALL (       1 calls)
     electrons    :    213.61s CPU    216.04s WALL (       1 calls)

     Called by init_run:
     wfcinit      :      2.62s CPU      2.67s WALL (       1 calls)
     potinit      :      1.87s CPU      1.87s WALL (       1 calls)

     Called by electrons:
     c_bands      :     85.23s CPU     86.81s WALL (      18 calls)
     sum_band     :     59.48s CPU     59.94s WALL (      18 calls)
     v_of_rho     :      4.99s CPU      5.02s WALL (      19 calls)
     newd         :     64.67s CPU     64.84s WALL (      19 calls)
     mix_rho      :      1.04s CPU      1.04s WALL (      18 calls)

     Called by c_bands:
     init_us_2    :      0.54s CPU      0.71s WALL (      74 calls)
     cegterg      :     81.06s CPU     82.16s WALL (      36 calls)

     Called by *egterg:
     h_psi        :     57.31s CPU     57.56s WALL (     151 calls)
     s_psi        :      6.45s CPU      6.51s WALL (     151 calls)
     g_psi        :      0.35s CPU      0.37s WALL (     113 calls)
     cdiaghg      :      4.46s CPU      4.45s WALL (     149 calls)

     Called by h_psi:
     add_vuspsi   :      6.58s CPU      6.61s WALL (     151 calls)

     General routines
     calbec       :      9.60s CPU      9.72s WALL (     187 calls)
     fft          :      5.21s CPU      5.29s WALL (     299 calls)
     ffts         :      0.23s CPU      0.18s WALL (      37 calls)
     fftw         :     42.91s CPU     42.90s WALL (   16958 calls)
     interpolate  :      0.87s CPU      0.87s WALL (      37 calls)
     davcio       :      0.00s CPU      0.60s WALL (     110 calls)
 
     Parallel routines
     fft_scatter  :     16.23s CPU     16.04s WALL (   17294 calls)
 
     PWSCF        :  3m43.12s CPU     3m45.72s WALL

 
   This run was terminated on:  20: 5:34  17Apr2014            

=------------------------------------------------------------------------------=
   JOB DONE.
=------------------------------------------------------------------------------=
