
     Program PWSCF v.5.0.2 (svn rev. 9392) starts on 17Apr2014 at 20: 9:42 

     This program is part of the open-source Quantum ESPRESSO suite
     for quantum simulation of materials; please cite
         "P. Giannozzi et al., J. Phys.:Condens. Matter 21 395502 (2009);
          URL http://www.quantum-espresso.org", 
     in publications or presentations arising from this work. More details at
     http://www.quantum-espresso.org/quote.php

     Parallel version (MPI), running on     6 processors
     R & G space division:  proc/nbgrp/npool/nimage =       6

     Current dimensions of program PWSCF are:
     Max number of different atomic species (ntypx) = 10
     Max number of k-points (npk) =  40000
     Max angular momentum in pseudopotentials (lmaxx) =  3
     Reading input from /home/ferretti/want/tests/test15/scf_bulk.in

     IMPORTANT: XC functional enforced from input :
     Exchange-correlation      = PBE ( 1 4 3 4 0)
     EXX-fraction              =        0.00
     Any further DFT definition will be discarded
     Please, verify this is what you really want


     Subspace diagonalization in iterative solution of the eigenvalue problem:
     a serial algorithm will be used

     Found symmetry operation: I + (  0.0000  0.0000  0.2500)
     This is a supercell, fractional translations are disabled
 
     Parallelization info
     --------------------
     sticks:   dense  smooth     PW     G-vecs:    dense   smooth      PW
     Min         524     263     70                27928     9889    1362
     Max         525     264     71                27933     9902    1367
     Sum        3149    1581    421               167587    59381    8185
 


     bravais-lattice index     =            8
     lattice parameter (alat)  =      15.0000  a.u.
     unit-cell volume          =    4251.8855 (a.u.)^3
     number of atoms/cell      =            4
     number of atomic types    =            1
     number of electrons       =        44.00
     number of Kohn-Sham states=           26
     kinetic-energy cutoff     =      22.0000  Ry
     charge density cutoff     =     176.0000  Ry
     convergence threshold     =      1.0E-08
     mixing beta               =       0.3000
     number of iterations used =            8  plain     mixing
     Exchange-correlation      = PBE ( 1 4 3 4 0)
     EXX-fraction              =        0.00

     celldm(1)=  15.000000  celldm(2)=   1.000000  celldm(3)=   1.259818
     celldm(4)=   0.000000  celldm(5)=   0.000000  celldm(6)=   0.000000

     crystal axes: (cart. coord. in units of alat)
               a(1) = (   1.000000   0.000000   0.000000 )  
               a(2) = (   0.000000   1.000000   0.000000 )  
               a(3) = (   0.000000   0.000000   1.259818 )  

     reciprocal axes: (cart. coord. in units 2 pi/alat)
               b(1) = (  1.000000  0.000000  0.000000 )  
               b(2) = (  0.000000  1.000000  0.000000 )  
               b(3) = (  0.000000  0.000000  0.793766 )  


     PseudoPot. # 1 for Au read from file:
     ../pseudo/Au.pw91-d-van.UPF
     MD5 check sum: dc02f59ef2ea6b62d9e9493d750aaae0
     Pseudo is Ultrasoft, Zval = 11.0
     Generated by new atomic code, or converted to UPF format
     Using radial grid of  939 points,  6 beta functions with: 
                l(1) =   0
                l(2) =   0
                l(3) =   1
                l(4) =   1
                l(5) =   2
                l(6) =   2
     Q(r) pseudized with  3 coefficients,  rinner =    1.600   1.800   1.600
                                                       1.600   1.800

     atomic species   valence    mass     pseudopotential
        Au            11.00   196.96650     Au( 1.00)

     16 Sym. Ops., with inversion, found



   Cartesian axes

     site n.     atom                  positions (alat units)
         1           Au  tau(   1) = (   0.0000000   0.0000000  -0.6299087  )
         2           Au  tau(   2) = (   0.0000000   0.0000000  -0.3149544  )
         3           Au  tau(   3) = (   0.0000000   0.0000000   0.0000000  )
         4           Au  tau(   4) = (   0.0000000   0.0000000   0.3149544  )

     number of k points=     4  gaussian smearing, width (Ry)=  0.0100
                       cart. coord. in units 2pi/alat
        k(    1) = (   0.0000000   0.0000000   0.0496103), wk =   0.5000000
        k(    2) = (   0.0000000   0.0000000   0.1488310), wk =   0.5000000
        k(    3) = (   0.0000000   0.0000000   0.2480517), wk =   0.5000000
        k(    4) = (   0.0000000   0.0000000   0.3472724), wk =   0.5000000

     Dense  grid:   167587 G-vectors     FFT dimensions: (  64,  64,  80)

     Smooth grid:    59381 G-vectors     FFT dimensions: (  45,  45,  60)

     Largest allocated arrays     est. size (Mb)     dimensions
        Kohn-Sham Wavefunctions         0.49 Mb     (   1238,   26)
        NL pseudopotentials             1.36 Mb     (   1238,   72)
        Each V/rho on FFT grid          0.88 Mb     (  57344)
        Each G-vector array             0.21 Mb     (  27933)
        G-vector shells                 0.06 Mb     (   7680)
     Largest temporary arrays     est. size (Mb)     dimensions
        Auxiliary wavefunctions         1.96 Mb     (   1238,  104)
        Each subspace H/S matrix        0.17 Mb     ( 104, 104)
        Each <psi_i|beta_j> matrix      0.03 Mb     (     72,   26)
        Arrays for rho mixing           7.00 Mb     (  57344,   8)

     Initial potential from superposition of free atoms
     Check: negative starting charge=   -0.000123

     starting charge   43.95137, renormalised to   44.00000

     negative rho (up, down):  0.123E-03 0.000E+00
     Starting wfc are   36 randomized atomic wfcs

     total cpu time spent up to now is        1.6 secs

     per-process dynamical memory:    24.1 Mb

     Self-consistent Calculation

     iteration #  1     ecut=    22.00 Ry     beta=0.30
     Davidson diagonalization with overlap
     ethr =  1.00E-02,  avg # of iterations =  2.0

     Threshold (ethr) on eigenvalues was too large:
     Diagonalizing with lowered threshold

     Davidson diagonalization with overlap
     ethr =  1.97E-04,  avg # of iterations =  2.0

     negative rho (up, down):  0.147E-03 0.000E+00

     total cpu time spent up to now is        4.4 secs

     total energy              =    -269.03686068 Ry
     Harris-Foulkes estimate   =    -269.06356763 Ry
     estimated scf accuracy    <       0.08799992 Ry

     iteration #  2     ecut=    22.00 Ry     beta=0.30
     Davidson diagonalization with overlap
     ethr =  2.00E-04,  avg # of iterations =  1.0

     negative rho (up, down):  0.214E-03 0.000E+00

     total cpu time spent up to now is        5.9 secs

     total energy              =    -269.04017945 Ry
     Harris-Foulkes estimate   =    -269.04520213 Ry
     estimated scf accuracy    <       0.02809424 Ry

     iteration #  3     ecut=    22.00 Ry     beta=0.30
     Davidson diagonalization with overlap
     ethr =  6.39E-05,  avg # of iterations =  1.0

     negative rho (up, down):  0.102E-02 0.000E+00

     total cpu time spent up to now is        7.5 secs

     total energy              =    -269.03934192 Ry
     Harris-Foulkes estimate   =    -269.04148957 Ry
     estimated scf accuracy    <       0.00965535 Ry

     iteration #  4     ecut=    22.00 Ry     beta=0.30
     Davidson diagonalization with overlap
     ethr =  2.19E-05,  avg # of iterations =  2.0

     negative rho (up, down):  0.137E-02 0.000E+00

     total cpu time spent up to now is        9.1 secs

     total energy              =    -269.03997473 Ry
     Harris-Foulkes estimate   =    -269.04013018 Ry
     estimated scf accuracy    <       0.00057164 Ry

     iteration #  5     ecut=    22.00 Ry     beta=0.30
     Davidson diagonalization with overlap
     ethr =  1.30E-06,  avg # of iterations =  3.2

     negative rho (up, down):  0.172E-02 0.000E+00

     total cpu time spent up to now is       11.0 secs

     total energy              =    -269.04017001 Ry
     Harris-Foulkes estimate   =    -269.04019983 Ry
     estimated scf accuracy    <       0.00009470 Ry

     iteration #  6     ecut=    22.00 Ry     beta=0.30
     Davidson diagonalization with overlap
     ethr =  2.15E-07,  avg # of iterations =  3.0

     negative rho (up, down):  0.171E-02 0.000E+00

     total cpu time spent up to now is       12.8 secs

     total energy              =    -269.04020593 Ry
     Harris-Foulkes estimate   =    -269.04021774 Ry
     estimated scf accuracy    <       0.00004841 Ry

     iteration #  7     ecut=    22.00 Ry     beta=0.30
     Davidson diagonalization with overlap
     ethr =  1.10E-07,  avg # of iterations =  2.0

     negative rho (up, down):  0.167E-02 0.000E+00

     total cpu time spent up to now is       14.4 secs

     total energy              =    -269.04021160 Ry
     Harris-Foulkes estimate   =    -269.04021128 Ry
     estimated scf accuracy    <       0.00000306 Ry

     iteration #  8     ecut=    22.00 Ry     beta=0.30
     Davidson diagonalization with overlap
     ethr =  6.95E-09,  avg # of iterations =  3.0

     negative rho (up, down):  0.166E-02 0.000E+00

     total cpu time spent up to now is       16.3 secs

     total energy              =    -269.04021358 Ry
     Harris-Foulkes estimate   =    -269.04021325 Ry
     estimated scf accuracy    <       0.00000126 Ry

     iteration #  9     ecut=    22.00 Ry     beta=0.30
     Davidson diagonalization with overlap
     ethr =  2.87E-09,  avg # of iterations =  2.0

     negative rho (up, down):  0.167E-02 0.000E+00

     total cpu time spent up to now is       18.0 secs

     total energy              =    -269.04021435 Ry
     Harris-Foulkes estimate   =    -269.04021389 Ry
     estimated scf accuracy    <       0.00000005 Ry

     iteration # 10     ecut=    22.00 Ry     beta=0.30
     Davidson diagonalization with overlap
     ethr =  1.16E-10,  avg # of iterations =  3.0

     negative rho (up, down):  0.167E-02 0.000E+00

     total cpu time spent up to now is       19.9 secs

     End of self-consistent calculation

          k = 0.0000 0.0000 0.0496 (  7377 PWs)   bands (ev):

    -9.8047  -7.5027  -7.5027  -7.1283  -6.4796  -6.3218  -6.3218  -6.0197
    -6.0197  -5.8429  -5.8408  -5.5497  -5.5483  -5.5332  -5.4837  -5.4822
    -5.1703  -5.1688  -4.7147  -4.4422  -4.3804  -4.1939  -4.1939  -0.0873
    -0.0873   0.5511

          k = 0.0000 0.0000 0.1488 (  7388 PWs)   bands (ev):

    -9.7017  -7.7489  -7.4575  -7.4575  -6.5993  -6.5993  -5.8579  -5.8308
    -5.8287  -5.7011  -5.7011  -5.6138  -5.6123  -5.5044  -5.4178  -5.4165
    -5.1843  -5.1826  -4.9287  -4.4338  -4.2998  -4.2998  -4.0695  -0.1481
     0.0148   0.0148

          k = 0.0000 0.0000 0.2481 (  7416 PWs)   bands (ev):

    -9.4970  -8.3105  -7.3677  -7.3677  -6.8472  -6.8472  -5.8068  -5.8048
    -5.6738  -5.6721  -5.4470  -5.3752  -5.3752  -5.3553  -5.3540  -5.3406
    -5.2111  -5.2095  -5.1036  -4.5419  -4.4945  -4.4945  -3.5359  -1.0517
     0.2053   0.2053

          k = 0.0000 0.0000 0.3473 (  7420 PWs)   bands (ev):

    -9.1934  -8.7956  -7.2343  -7.2343  -7.0601  -7.0601  -5.7718  -5.7701
    -5.7270  -5.7252  -5.3611  -5.2985  -5.2971  -5.2494  -5.2481  -5.2469
    -5.0545  -5.0545  -4.9674  -4.7544  -4.7544  -4.7132  -2.8197  -1.9688
     0.4651   0.4651

     the Fermi energy is    -4.1800 ev

!    total energy              =    -269.04021509 Ry
     Harris-Foulkes estimate   =    -269.04021436 Ry
     estimated scf accuracy    <          4.2E-09 Ry

     The total energy is the sum of the following terms:

     one-electron contribution =    -378.95305729 Ry
     hartree contribution      =     206.75153350 Ry
     xc contribution           =     -41.27831139 Ry
     ewald contribution        =     -55.55530532 Ry
     smearing contrib. (-TS)   =      -0.00507460 Ry

     convergence has been achieved in  10 iterations

     Writing output data file au_bulk.save
 
     init_run     :      1.37s CPU      1.49s WALL (       1 calls)
     electrons    :     18.04s CPU     18.28s WALL (       1 calls)

     Called by init_run:
     wfcinit      :      0.35s CPU      0.44s WALL (       1 calls)
     potinit      :      0.29s CPU      0.29s WALL (       1 calls)

     Called by electrons:
     c_bands      :      7.98s CPU      8.09s WALL (      11 calls)
     sum_band     :      5.29s CPU      5.34s WALL (      11 calls)
     v_of_rho     :      0.83s CPU      0.84s WALL (      11 calls)
     newd         :      3.91s CPU      3.95s WALL (      11 calls)
     mix_rho      :      0.12s CPU      0.13s WALL (      11 calls)

     Called by c_bands:
     init_us_2    :      0.10s CPU      0.11s WALL (      92 calls)
     cegterg      :      7.28s CPU      7.34s WALL (      44 calls)

     Called by *egterg:
     h_psi        :      5.87s CPU      5.88s WALL (     145 calls)
     s_psi        :      0.27s CPU      0.34s WALL (     145 calls)
     g_psi        :      0.10s CPU      0.06s WALL (      97 calls)
     cdiaghg      :      0.30s CPU      0.32s WALL (     137 calls)

     Called by h_psi:
     add_vuspsi   :      0.35s CPU      0.34s WALL (     145 calls)

     General routines
     calbec       :      0.66s CPU      0.56s WALL (     189 calls)
     fft          :      0.68s CPU      0.76s WALL (     175 calls)
     ffts         :      0.03s CPU      0.03s WALL (      22 calls)
     fftw         :      4.96s CPU      5.12s WALL (    7108 calls)
     interpolate  :      0.16s CPU      0.14s WALL (      22 calls)
     davcio       :      0.04s CPU      0.16s WALL (     136 calls)
 
     Parallel routines
     fft_scatter  :      1.66s CPU      1.61s WALL (    7305 calls)
 
     PWSCF        :    19.56s CPU        20.00s WALL

 
   This run was terminated on:  20:10: 2  17Apr2014            

=------------------------------------------------------------------------------=
   JOB DONE.
=------------------------------------------------------------------------------=
