
     Program POST-PROC v.3.2cvs starts ...
     Today is 14Oct2006 at  7:18:20 

     nbndx  =    10  nbnd   =    10  natomwfc =     6  npwx   =    2911
     nelec  =  10.00  nkb   =    18  ngl    =    4885

     Check: negative/imaginary core charge=   -0.000038    0.000000

     negative rho (up, down):  0.327E-02 0.187E-02
