
     Program POST-PROC v.3.2cvs starts ...
     Today is  7Aug2007 at 18:24:57 

     negative rho (up, down):  0.556E-02 0.000E+00
