
     Program POST-PROC v.3.2cvs starts ...
     Today is  7Aug2007 at 18:15:10 
