
     Program POST-PROC v.3.1    starts ...
     Today is 11Apr2006 at 17:32:52 

     nbndx  =    40  nbnd   =    40  natomwfc =    30  npwx   =   28017
     nelec  =  30.00  nkb   =     6  ngl    =    1185
