
     Program POST-PROC v.3.2    starts ...
     Today is  8Jun2007 at 15:39:12 

     nbndx  =    10  nbnd   =    10  natomwfc =     8  npwx   =    2878
     nelec  =   8.00  nkb   =     2  ngl    =    1057
