
     Program POST-PROC v.3.2cvs starts ...
     Today is 14Oct2006 at  0:17:55 

     nbndx  =    40  nbnd   =    40  natomwfc =    30  npwx   =   28017
     nelec  =  30.00  nkb   =     6  ngl    =    1185
