
     Program POST-PROC v.3.2cvs starts ...
     Today is 14Oct2006 at  0:25:45 

     nbndx  =    40  nbnd   =    40  natomwfc =    30  npwx   =   12053
     nelec  =  30.00  nkb   =    54  ngl    =    1691

     negative rho (up, down):  0.556E-02 0.000E+00
