
     Program POST-PROC v.2.1.5  starts ...
     Today is 17Nov2005 at 13:18:58 

     Reading file copper.save ... 
     read complete

     Reading file copper.save ... 
     read complete

     nbndx  =    20  nbnd   =    20  natomwfc =     9  npwx   =    2148
     nelec  =   11.00 nkb   =     8  ngl    =     214
