
     Program POST-PROC v.3.1    starts ...
     Today is 11Apr2006 at 17:18:42 

     nbndx  =    20  nbnd   =    20  natomwfc =     9  npwx   =    2138
     nelec  =  11.00  nkb   =     8  ngl    =     214
