
     Program POST-PROC v.3.2    starts ...
     Today is 25Jan2007 at 17:12: 4 

     nbndx  =    20  nbnd   =    20  natomwfc =     9  npwx   =    2138
     nelec  =  11.00  nkb   =     8  ngl    =     214
