
     Program POST-PROC v.3.0    starts ...
     Today is 30Nov2005 at 15:30:34 

     Reading file copper_US.save ...      only dimensions
     read complete

     Reading file copper_US.save ...      all except wavefuctions
     read complete

     nbndx  =    20  nbnd   =    20  natomwfc =     6  npwx   =     190
     nelec  =  11.00  nkb   =    13  ngl    =      84
