
     Program POST-PROC v.3.1    starts ...
     Today is 11Apr2006 at 17:23:29 

     nbndx  =    20  nbnd   =    20  natomwfc =     6  npwx   =     190
     nelec  =  11.00  nkb   =    13  ngl    =      84
