
     Program POST-PROC v.2.1.3  starts ...
     Today is  1Aug2005 at 13:40:55 

     Reading file copper.save ... 
     read complete

     Reading file copper.save ... 
     read complete

     nbndx  =    10  nbnd   =    10  natomwfc =     9  npwx   =    2148
     nelec  =   11.00 nkb   =     8  ngl    =     214
