
     Program POST-PROC v.3.0    starts ...
     Today is 30Nov2005 at 15:27:26 

     Reading file copper.save ...      only dimensions
     read complete

     Reading file copper.save ...      all except wavefuctions
     read complete

     nbndx  =    20  nbnd   =    20  natomwfc =     9  npwx   =    2148
     nelec  =  11.00  nkb   =     8  ngl    =     214
