
     Program POST-PROC v.3.2cvs starts ...
     Today is 13Oct2006 at 23:40:16 

     nbndx  =    20  nbnd   =    20  natomwfc =     6  npwx   =     190
     nelec  =  11.00  nkb   =    13  ngl    =      84
