
     Program POST-PROC v.2.1.3  starts ...
     Today is  1Aug2005 at 12:45: 2 

     Reading file nichain.save ... 
     read complete

     Reading file nichain.save ... 
     read complete

     nbndx  =    10  nbnd   =    10  natomwfc =     6  npwx   =    2911
     nelec  =   10.00 nkb   =    18  ngl    =    4885
  warning: negative or imaginary core charge    -0.000038    0.000000
