
     Program POST-PROC v.3.2    starts ...
     Today is 27Feb2007 at 18: 8:14 

     nbndx  =    10  nbnd   =    10  natomwfc =     6  npwx   =    2911
     nelec  =  10.00  nkb   =    18  ngl    =    4885

     Check: negative/imaginary core charge=   -0.000038    0.000000

     negative rho (up, down):  0.342E-02 0.227E-02
