
     Program POST-PROC v.2.1.5  starts ...
     Today is 10Oct2005 at  8:40:45 

     Reading file chain8.save ... 
     read complete

     Reading file chain8.save ... 
     read complete

     nbndx  =    80  nbnd   =    80  natomwfc =    32  npwx   =   17017
     nelec  =   32.00 nkb   =    64  ngl    =   17515
