
     Program PWSCF v.4.2        starts on 23Sep2010 at  6: 5:38 

     This program is part of the open-source Quantum ESPRESSO suite
     for quantum simulation of materials; please acknowledge
         "P. Giannozzi et al., J. Phys.:Condens. Matter 21 395502 (2009);
          URL http://www.quantum-espresso.org", 
     in publications or presentations arising from this work. More details at
     http://www.quantum-espresso.org/wiki/index.php/Citing_Quantum-ESPRESSO

     Parallel version (MPI), running on     6 processors
     R & G space division:  proc/pool =    6

     Current dimensions of program PWSCF are:
     Max number of different atomic species (ntypx) = 10
     Max number of k-points (npk) =  40000
     Max angular momentum in pseudopotentials (lmaxx) =  3
     Waiting for input...

     Subspace diagonalization in iterative solution of the eigenvalue problem:
     a serial algorithm will be used


     Planes per process (thick) : nr3 = 120 npp =   20 ncplane =  3600
 
     Proc/  planes cols     G    planes cols    G      columns  G
     Pool       (dense grid)       (smooth grid)      (wavefct grid)
        1    20    347    25649   20    347    25649     93     3569
        2    20    346    25640   20    346    25640     93     3567
        3    20    346    25640   20    346    25640     93     3567
        4    20    346    25640   20    346    25640     93     3567
        5    20    346    25644   20    346    25644     93     3567
        6    20    346    25642   20    346    25642     94     3574
     tot    120   2077   153855  120   2077   153855    559    21411
 


     bravais-lattice index     =            4
     lattice parameter (a_0)   =      13.7470  a.u.
     unit-cell volume          =    4499.7408 (a.u.)^3
     number of atoms/cell      =           20
     number of atomic types    =            2
     number of electrons       =        74.00
     number of Kohn-Sham states=           44
     kinetic-energy cutoff     =      40.0000  Ry
     charge density cutoff     =     160.0000  Ry
     convergence threshold     =      1.0E-08
     mixing beta               =       0.3000
     number of iterations used =            8  plain     mixing
     Exchange-correlation      =  SLA  LYP  B88  BLYP (1313)
     EXX-fraction              =        0.00

     celldm(1)=  13.747032  celldm(2)=   0.000000  celldm(3)=   2.000000
     celldm(4)=   0.000000  celldm(5)=   0.000000  celldm(6)=   0.000000

     crystal axes: (cart. coord. in units of a_0)
               a(1) = (  1.000000  0.000000  0.000000 )  
               a(2) = ( -0.500000  0.866025  0.000000 )  
               a(3) = (  0.000000  0.000000  2.000000 )  

     reciprocal axes: (cart. coord. in units 2 pi/a_0)
               b(1) = (  1.000000  0.577350  0.000000 )  
               b(2) = (  0.000000  1.154701  0.000000 )  
               b(3) = (  0.000000  0.000000  0.500000 )  


     PseudoPot. # 1 for C  read from file C.blyp-mt.UPF
     Pseudo is Norm-conserving, Zval =  4.0
     Generated by new atomic code, or converted to UPF format
     Using radial grid of  279 points,  1 beta functions with: 
                l(1) =   0

     PseudoPot. # 2 for H  read from file H.blyp-vbc.UPF
     Pseudo is Norm-conserving, Zval =  1.0
     Generated by new atomic code, or converted to UPF format
     Using radial grid of  243 points,  0 beta functions with: 

     atomic species   valence    mass     pseudopotential
        C              4.00    12.01100     C ( 1.00)
        H              1.00     1.00000     H ( 1.00)

      6 Sym.Ops. (no inversion)


   Cartesian axes

     site n.     atom                  positions (a_0 units)
         1           C   tau(  1) = (  -0.1666668  -0.2886751   0.0000000  )
         2           C   tau(  2) = (   0.0000000  -0.1924501   0.0000000  )
         3           C   tau(  3) = (  -0.3333335   0.0000000   0.0000000  )
         4           C   tau(  4) = (  -0.1666668   0.0962250   0.0000000  )
         5           C   tau(  5) = (  -0.5000003   0.2886751   0.0000000  )
         6           C   tau(  6) = (  -0.3333335   0.3849002   0.0000000  )
         7           C   tau(  7) = (   0.1666668  -0.2886751   0.0000000  )
         8           C   tau(  8) = (   0.3333335  -0.1924501   0.0000000  )
         9           C   tau(  9) = (   0.0000000   0.0000000   0.0000000  )
        10           C   tau( 10) = (   0.1666667   0.0962250   0.0000000  )
        11           C   tau( 11) = (  -0.1666668   0.2886751   0.0000000  )
        12           C   tau( 12) = (   0.0000000   0.3849002   0.0000000  )
        13           C   tau( 13) = (   0.5000003  -0.2886751   0.0000000  )
        14           C   tau( 14) = (   0.6666670  -0.1924501   0.0000000  )
        15           C   tau( 15) = (   0.3333335   0.0000000   0.0000000  )
        16           C   tau( 16) = (   0.5000003   0.0962250   0.0000000  )
        17           C   tau( 17) = (   0.1666668   0.2886751   0.0000000  )
        18           C   tau( 18) = (   0.3333335   0.3849002   0.0000000  )
        19           H   tau( 19) = (   0.0000000   0.0000000   0.1649572  )
        20           H   tau( 20) = (   0.0000000   0.0000000   0.2886750  )

     number of k points=     2  gaussian broad. (Ry)=  0.0100     ngauss =   0
                       cart. coord. in units 2pi/a_0
        k(    1) = (   0.2500000   0.4330127   0.0000000), wk =   1.0000000
        k(    2) = (   0.2500000  -0.1443376   0.0000000), wk =   1.0000000

     G cutoff =  765.9107  ( 153855 G-vectors)     FFT grid: ( 60, 60,120)

     Largest allocated arrays     est. size (Mb)     dimensions
        Kohn-Sham Wavefunctions         2.16 Mb     (   3220,  44)
        NL pseudopotentials             0.88 Mb     (   3220,  18)
        Each V/rho on FFT grid          1.10 Mb     (  72000)
        Each G-vector array             0.20 Mb     (  25649)
        G-vector shells                 0.01 Mb     (   1398)
     Largest temporary arrays     est. size (Mb)     dimensions
        Auxiliary wavefunctions         8.65 Mb     (   3220, 176)
        Each subspace H/S matrix        0.47 Mb     (    176, 176)
        Each <psi_i|beta_j> matrix      0.01 Mb     (     18,  44)
        Arrays for rho mixing           8.79 Mb     (  72000,   8)

     Initial potential from superposition of free atoms
     Check: negative starting charge=   -0.014595

     starting charge   73.99908, renormalised to   74.00000

     negative rho (up, down):  0.146E-01 0.000E+00
     Starting wfc are   74 atomic wfcs

     total cpu time spent up to now is      3.73 secs

     per-process dynamical memory:    19.2 Mb

     Self-consistent Calculation

     iteration #  1     ecut=    40.00 Ry     beta=0.30
     Davidson diagonalization with overlap
     ethr =  1.00E-02,  avg # of iterations =  2.0

     negative rho (up, down):  0.100E-01 0.000E+00

     total cpu time spent up to now is      7.73 secs

     total energy              =    -205.45633501 Ry
     Harris-Foulkes estimate   =    -206.12475942 Ry
     estimated scf accuracy    <       2.14218486 Ry

     iteration #  2     ecut=    40.00 Ry     beta=0.30
     Davidson diagonalization with overlap
     ethr =  2.89E-03,  avg # of iterations =  1.0

     negative rho (up, down):  0.281E-02 0.000E+00

     total cpu time spent up to now is     10.61 secs

     total energy              =    -205.17436117 Ry
     Harris-Foulkes estimate   =    -205.53409458 Ry
     estimated scf accuracy    <       0.71225845 Ry

     iteration #  3     ecut=    40.00 Ry     beta=0.30
     Davidson diagonalization with overlap
     ethr =  9.63E-04,  avg # of iterations =  9.0

     negative rho (up, down):  0.126E-02 0.000E+00

     total cpu time spent up to now is     15.30 secs

     total energy              =    -205.29399409 Ry
     Harris-Foulkes estimate   =    -205.29561297 Ry
     estimated scf accuracy    <       0.02270285 Ry

     iteration #  4     ecut=    40.00 Ry     beta=0.30
     Davidson diagonalization with overlap
     ethr =  3.07E-05,  avg # of iterations =  6.0

     negative rho (up, down):  0.277E-03 0.000E+00

     total cpu time spent up to now is     19.54 secs

     total energy              =    -205.29877163 Ry
     Harris-Foulkes estimate   =    -205.29785016 Ry
     estimated scf accuracy    <       0.00557160 Ry

     iteration #  5     ecut=    40.00 Ry     beta=0.30
     Davidson diagonalization with overlap
     ethr =  7.53E-06,  avg # of iterations =  6.0

     negative rho (up, down):  0.121E-04 0.000E+00

     total cpu time spent up to now is     23.30 secs

     total energy              =    -205.29948844 Ry
     Harris-Foulkes estimate   =    -205.29938953 Ry
     estimated scf accuracy    <       0.00089766 Ry

     iteration #  6     ecut=    40.00 Ry     beta=0.30
     Davidson diagonalization with overlap
     ethr =  1.21E-06,  avg # of iterations =  6.0

     total cpu time spent up to now is     26.67 secs

     total energy              =    -205.29952442 Ry
     Harris-Foulkes estimate   =    -205.29953248 Ry
     estimated scf accuracy    <       0.00009548 Ry

     iteration #  7     ecut=    40.00 Ry     beta=0.30
     Davidson diagonalization with overlap
     ethr =  1.29E-07,  avg # of iterations =  2.0

     total cpu time spent up to now is     30.26 secs

     total energy              =    -205.29953468 Ry
     Harris-Foulkes estimate   =    -205.29954294 Ry
     estimated scf accuracy    <       0.00001137 Ry

     iteration #  8     ecut=    40.00 Ry     beta=0.30
     Davidson diagonalization with overlap
     ethr =  1.54E-08,  avg # of iterations =  2.5

     total cpu time spent up to now is     34.10 secs

     total energy              =    -205.29953681 Ry
     Harris-Foulkes estimate   =    -205.29953768 Ry
     estimated scf accuracy    <       0.00000077 Ry

     iteration #  9     ecut=    40.00 Ry     beta=0.30
     Davidson diagonalization with overlap
     ethr =  1.04E-09,  avg # of iterations =  2.0

     total cpu time spent up to now is     37.27 secs

     total energy              =    -205.29953627 Ry
     Harris-Foulkes estimate   =    -205.29953690 Ry
     estimated scf accuracy    <       0.00000019 Ry

     iteration # 10     ecut=    40.00 Ry     beta=0.30
     Davidson diagonalization with overlap
     ethr =  2.53E-10,  avg # of iterations =  2.0

     total cpu time spent up to now is     40.53 secs

     total energy              =    -205.29953593 Ry
     Harris-Foulkes estimate   =    -205.29953629 Ry
     estimated scf accuracy    <       0.00000002 Ry

     iteration # 11     ecut=    40.00 Ry     beta=0.30
     Davidson diagonalization with overlap
     ethr =  2.95E-11,  avg # of iterations =  3.0

     total cpu time spent up to now is     44.05 secs

     End of self-consistent calculation

          k = 0.2500 0.4330 0.0000 ( 19190 PWs)   bands (ev):

   -21.1093 -20.4657 -20.2665 -18.4929 -18.3126 -17.1416 -16.6197 -16.4342
   -15.6734 -14.6773 -14.4249 -14.3259 -12.2889 -11.3021 -11.1817 -10.6830
   -10.0979  -9.8588  -9.1820  -9.1067  -8.5985  -8.5650  -8.3839  -8.0613
    -8.0299  -7.8876  -6.6846  -6.6724  -6.5215  -6.2885  -5.6399  -5.6088
    -4.8572  -4.1126  -3.9026  -3.3886  -2.5540   0.0147   0.4490   0.6471
     1.4896   2.5572   2.9296   3.3605

          k = 0.2500-0.1443 0.0000 ( 19230 PWs)   bands (ev):

   -21.4173 -20.0853 -19.4520 -19.2882 -18.1591 -17.9845 -17.4098 -15.7411
   -15.5654 -13.8113 -13.6867 -13.5012 -12.4210 -12.3474 -11.4573 -11.3864
   -10.4489 -10.1778  -9.8918  -9.0696  -8.3802  -8.2292  -8.2087  -7.9280
    -7.5993  -7.5759  -7.1999  -6.7439  -6.6726  -5.9059  -5.2907  -5.2571
    -4.9358  -4.8399  -3.6599  -2.7482  -2.3365  -0.1952   0.0100   1.3367
     2.1577   2.2751   2.5143   3.0938

     the Fermi energy is    -1.1153 ev

!    total energy              =    -205.29953583 Ry
     Harris-Foulkes estimate   =    -205.29953594 Ry
     estimated scf accuracy    <          3.2E-09 Ry

     The total energy is the sum of the following terms:

     one-electron contribution =   -1450.21387759 Ry
     hartree contribution      =     737.65063474 Ry
     xc contribution           =     -64.19324312 Ry
     ewald contribution        =     571.45695015 Ry
     smearing contrib. (-TS)   =       0.00000000 Ry

     convergence has been achieved in  11 iterations

     Forces acting on atoms (Ry/au):

     atom   1 type  1   force =     0.00925648    0.00546046    0.00128304
     atom   2 type  1   force =     0.00000000   -0.04724810   -0.06016037
     atom   3 type  1   force =     0.00935714    0.00528612    0.00128304
     atom   4 type  1   force =    -0.04091806    0.02362405   -0.06016037
     atom   5 type  1   force =     0.00000000    0.00000000   -0.00022739
     atom   6 type  1   force =    -0.00237769   -0.00137276    0.00144275
     atom   7 type  1   force =    -0.00925648    0.00546046    0.00128304
     atom   8 type  1   force =     0.00226554   -0.00130801    0.00371503
     atom   9 type  1   force =     0.00000000    0.00000000   -0.12929489
     atom  10 type  1   force =     0.04091806    0.02362405   -0.06016037
     atom  11 type  1   force =     0.00010066   -0.01074658    0.00128304
     atom  12 type  1   force =     0.00000000    0.00261602    0.00371503
     atom  13 type  1   force =     0.00000000    0.00000000   -0.00039855
     atom  14 type  1   force =    -0.00226554   -0.00130801    0.00371503
     atom  15 type  1   force =    -0.00935714    0.00528612    0.00128304
     atom  16 type  1   force =     0.00000000    0.00274552    0.00144275
     atom  17 type  1   force =    -0.00010066   -0.01074658    0.00128304
     atom  18 type  1   force =     0.00237769   -0.00137276    0.00144275
     atom  19 type  2   force =     0.00000000    0.00000000    0.28364273
     atom  20 type  2   force =     0.00000000    0.00000000    0.00358760

     Total force =     0.339900     Total SCF correction =     0.000103

     Writing output data file H2graph.save
 
     init_run     :      3.29s CPU      3.48s WALL (       1 calls)
     electrons    :     39.36s CPU     40.33s WALL (       1 calls)
     forces       :      0.22s CPU      0.22s WALL (       1 calls)

     Called by init_run:
     wfcinit      :      1.78s CPU      1.92s WALL (       1 calls)
     potinit      :      0.13s CPU      0.14s WALL (       1 calls)

     Called by electrons:
     c_bands      :     33.13s CPU     33.72s WALL (      11 calls)
     sum_band     :      4.45s CPU      4.56s WALL (      11 calls)
     v_of_rho     :      1.10s CPU      1.13s WALL (      12 calls)
     mix_rho      :      0.33s CPU      0.46s WALL (      11 calls)

     Called by c_bands:
     init_us_2    :      0.07s CPU      0.06s WALL (      48 calls)
     cegterg      :     33.09s CPU     33.62s WALL (      22 calls)

     Called by *egterg:
     h_psi        :     23.64s CPU     23.84s WALL (     107 calls)
     g_psi        :      0.19s CPU      0.20s WALL (      83 calls)
     cdiaghg      :      1.71s CPU      1.84s WALL (     105 calls)

     Called by h_psi:
     add_vuspsi   :      0.80s CPU      0.77s WALL (     107 calls)

     General routines
     calbec       :      1.16s CPU      1.24s WALL (     109 calls)
     cft3s        :     23.13s CPU     23.45s WALL (    6399 calls)
     davcio       :      0.00s CPU      0.12s WALL (      70 calls)
 
     Parallel routines
     fft_scatter  :      5.68s CPU      5.81s WALL (    6399 calls)
 
     PWSCF        :    42.97s CPU time,       44.40s WALL time

 
   This run was terminated on:   6: 6:23  23Sep2010            

=------------------------------------------------------------------------------=
   JOB DONE.
=------------------------------------------------------------------------------=
