
     Program POST-PROC v.3.1    starts ...
     Today is 12Apr2006 at  0:26:46 

     nbndx  =    20  nbnd   =    20  natomwfc =    12  npwx   =    5757
     nelec  =  18.00  nkb   =    36  ngl    =    6931

     Check: negative/imaginary core charge=   -0.000028    0.000000

     negative rho (up, down):  0.132E+00 0.000E+00
