
     Program POST-PROC v.3.1    starts ...
     Today is 12Apr2006 at  0:23: 7 

     nbndx  =    20  nbnd   =    20  natomwfc =    18  npwx   =    8007
     nelec  =  22.00  nkb   =    36  ngl    =    9453

     negative rho (up, down):  0.181E-02 0.000E+00
