
     Program POST-PROC v.3.2cvs starts ...
     Today is 14Oct2006 at  6:32:24 

     nbndx  =    20  nbnd   =    20  natomwfc =    18  npwx   =    8007
     nelec  =  22.00  nkb   =    16  ngl    =    3621

     Check: negative/imaginary core charge=   -0.000071    0.000000
