
     Program POST-PROC v.3.0    starts ...
     Today is 30Nov2005 at 20:44:35 

     Reading file gold.save ...      only dimensions
     read complete

     Reading file gold.save ...      all except wavefuctions
     read complete

     nbndx  =    20  nbnd   =    20  natomwfc =    18  npwx   =    8007
     nelec  =  22.00  nkb   =    16  ngl    =    3621

     Check: negative/imaginary core charge=   -0.000071    0.000000
