
     Program POST-PROC v.3.1    starts ...
     Today is 11Apr2006 at 17:55:37 

     nbndx  =    28  nbnd   =    28  natomwfc =    49  npwx   =   37107
     nelec  =  56.00  nkb   =    93  ngl    =   38788

     negative rho (up, down):  0.472E-01 0.000E+00
