
     Program POST-PROC v.3.2cvs starts ...
     Today is 14Oct2006 at  0:47:52 

     nbndx  =    28  nbnd   =    28  natomwfc =    49  npwx   =   37107
     nelec  =  56.00  nkb   =    93  ngl    =   38788

     negative rho (up, down):  0.472E-01 0.000E+00
