
     Program POST-PROC v.3.0    starts ...
     Today is  2Dec2005 at 19:46:47 

     Reading file guanine.save ...      only dimensions
     read complete

     Reading file guanine.save ...      all except wavefuctions
     read complete

     nbndx  =    28  nbnd   =    28  natomwfc =    49  npwx   =   37107
     nelec  =  56.00  nkb   =    93  ngl    =   38788
