
     Program POST-PROC v.3.2cvs starts ...
     Today is 14Oct2006 at  9:16:29 

     nbndx  =    60  nbnd   =    60  natomwfc =    50  npwx   =   22572
     nelec  =  82.00  nkb   =   108  ngl    =   26868

     negative rho (up, down):  0.242E-04 0.000E+00
