
     Program PWSCF v.5.0.2 (svn rev. 10303M) starts on  1Aug2013 at 11:11:45 

     This program is part of the open-source Quantum ESPRESSO suite
     for quantum simulation of materials; please cite
         "P. Giannozzi et al., J. Phys.:Condens. Matter 21 395502 (2009);
          URL http://www.quantum-espresso.org", 
     in publications or presentations arising from this work. More details at
     http://www.quantum-espresso.org/quote

     Parallel version (MPI & OpenMP), running on       6 processor cores
     Number of MPI processes:                 6
     Threads/MPI process:                     1
     R & G space division:  proc/nbgrp/npool/nimage =       6
     Reading input from /home/ferretti/want/tests/test06/nscf_AuUS.in

     Current dimensions of program PWSCF are:
     Max number of different atomic species (ntypx) = 10
     Max number of k-points (npk) =  40000
     Max angular momentum in pseudopotentials (lmaxx) =  3

     Atomic positions and unit cell read from directory:
     ./SCRATCH/gold_US.save/
 

     Subspace diagonalization in iterative solution of the eigenvalue problem:
     a serial algorithm will be used

 
     Parallelization info
     --------------------
     sticks:   dense  smooth     PW     G-vecs:    dense   smooth      PW
     Min        1061     530    199                15056     5336    1245
     Max        1063     531    201                15057     5343    1246
     Sum        6369    3181   1201                90341    32027    7473
 


     bravais-lattice index     =            8
     lattice parameter (alat)  =      20.0000  a.u.
     unit-cell volume          =    1889.7280 (a.u.)^3
     number of atoms/cell      =            1
     number of atomic types    =            1
     number of electrons       =        11.00
     number of Kohn-Sham states=           10
     kinetic-energy cutoff     =      25.0000  Ry
     charge density cutoff     =     200.0000  Ry
     Exchange-correlation      =  SLA  PW   GGX  GGC ( 1 4 2 2 0)
     EXX-fraction              =        0.00

     celldm(1)=  20.000000  celldm(2)=   1.000000  celldm(3)=   0.236216
     celldm(4)=   0.000000  celldm(5)=   0.000000  celldm(6)=   0.000000

     crystal axes: (cart. coord. in units of alat)
               a(1) = (   1.000000   0.000000   0.000000 )  
               a(2) = (   0.000000   1.000000   0.000000 )  
               a(3) = (   0.000000   0.000000   0.236216 )  

     reciprocal axes: (cart. coord. in units 2 pi/alat)
               b(1) = (  1.000000  0.000000  0.000000 )  
               b(2) = (  0.000000  1.000000  0.000000 )  
               b(3) = (  0.000000  0.000000  4.233413 )  


     PseudoPot. # 1 for Au read from file:
     ../pseudo/Au.pw91-d-van.UPF
     MD5 check sum: dc02f59ef2ea6b62d9e9493d750aaae0
     Pseudo is Ultrasoft, Zval = 11.0
     Generated by new atomic code, or converted to UPF format
     Using radial grid of  939 points,  6 beta functions with: 
                l(1) =   0
                l(2) =   0
                l(3) =   1
                l(4) =   1
                l(5) =   2
                l(6) =   2
     Q(r) pseudized with  3 coefficients,  rinner =    1.600   1.800   1.600
                                                       1.600   1.800

     atomic species   valence    mass     pseudopotential
        Au            11.00   196.96650     Au( 1.00)

      8 Sym. Ops. (no inversion) found
          (note:  8 additional sym.ops. were found but ignored
           their fractional translations are incommensurate with FFT grid)


   Cartesian axes

     site n.     atom                  positions (alat units)
         1           Au  tau(   1) = (   0.0000000   0.0000000   0.0472432  )

     number of k points=     8  gaussian smearing, width (Ry)=  0.0100
                       cart. coord. in units 2pi/alat
        k(    1) = (   0.0000000   0.0000000   0.0000000), wk =   0.2500000
        k(    2) = (   0.0000000   0.0000000   0.5291767), wk =   0.2500000
        k(    3) = (   0.0000000   0.0000000   1.0583534), wk =   0.2500000
        k(    4) = (   0.0000000   0.0000000   1.5875301), wk =   0.2500000
        k(    5) = (   0.0000000   0.0000000   2.1167067), wk =   0.2500000
        k(    6) = (   0.0000000   0.0000000   2.6458834), wk =   0.2500000
        k(    7) = (   0.0000000   0.0000000   3.1750601), wk =   0.2500000
        k(    8) = (   0.0000000   0.0000000   3.7042368), wk =   0.2500000

     Dense  grid:    90341 G-vectors     FFT dimensions: (  96,  96,  24)

     Smooth grid:    32027 G-vectors     FFT dimensions: (  64,  64,  15)

     Largest allocated arrays     est. size (Mb)     dimensions
        Kohn-Sham Wavefunctions         0.10 Mb     (     673,   10)
        NL pseudopotentials             0.18 Mb     (     673,   18)
        Each V/rho on FFT grid          0.56 Mb     (   36864)
        Each G-vector array             0.11 Mb     (   15057)
        G-vector shells                 0.03 Mb     (    3821)
     Largest temporary arrays     est. size (Mb)     dimensions
        Auxiliary wavefunctions         0.41 Mb     (     673,   40)
        Each subspace H/S matrix        0.02 Mb     (      40,   40)
        Each <psi_i|beta_j> matrix      0.00 Mb     (      18,   10)

     The potential is recalculated from file :
     ./SCRATCH/gold_US.save/charge-density.dat


     negative rho (up, down):  9.627E-04 0.000E+00
     Starting wfc are    9 randomized atomic wfcs

     Band Structure Calculation
     Davidson diagonalization with overlap

     ethr =  9.09E-11,  avg # of iterations = 38.5

     total cpu time spent up to now is       27.6 secs

     End of band structure calculation

          k = 0.0000 0.0000 0.0000 (  4031 PWs)   bands (ev):

   -10.8414  -6.8829  -6.8828  -6.5500  -5.2283  -5.2283  -1.2183  -1.2183
     1.0117   1.9695

          k = 0.0000 0.0000 0.5292 (  3979 PWs)   bands (ev):

   -10.0316  -6.7884  -6.7883  -6.3204  -5.9431  -5.9431  -0.5236  -0.5236
     1.3787   2.3375

          k = 0.0000 0.0000 1.0584 (  3968 PWs)   bands (ev):

    -7.8415  -7.2105  -7.2105  -6.5568  -6.5559  -5.5965   0.9808   0.9808
     2.4816   3.4414

          k = 0.0000 0.0000 1.5875 (  4000 PWs)   bands (ev):

    -8.1862  -8.1862  -6.3145  -6.3135  -5.8790  -3.4126   2.9626   2.9626
     4.3332   5.2811

          k = 0.0000 0.0000 2.1167 (  3976 PWs)   bands (ev):

    -8.5409  -8.5409  -6.2096  -6.2089  -5.4225  -0.3332   2.0455   4.6955
     4.6955   6.8503

          k = 0.0000 0.0000 2.6459 (  4000 PWs)   bands (ev):

    -8.1862  -8.1862  -6.3145  -6.3135  -5.8790  -3.4126   2.9626   2.9626
     4.3332   5.2811

          k = 0.0000 0.0000 3.1751 (  3968 PWs)   bands (ev):

    -7.8415  -7.2105  -7.2105  -6.5568  -6.5559  -5.5965   0.9808   0.9808
     2.4816   3.4414

          k = 0.0000 0.0000 3.7042 (  3979 PWs)   bands (ev):

   -10.0316  -6.7884  -6.7883  -6.3204  -5.9431  -5.9431  -0.5236  -0.5236
     1.3787   2.3375

     the Fermi energy is    -5.2258 ev

     Writing output data file gold_US.save
 
     init_run     :      1.93s CPU      2.23s WALL (       1 calls)
     electrons    :     21.81s CPU     25.13s WALL (       1 calls)

     Called by init_run:
     wfcinit      :      0.00s CPU      0.00s WALL (       1 calls)
     potinit      :      0.57s CPU      0.69s WALL (       1 calls)

     Called by electrons:
     c_bands      :     21.79s CPU     25.11s WALL (       1 calls)
     v_of_rho     :      0.20s CPU      0.21s WALL (       1 calls)
     newd         :      0.15s CPU      0.30s WALL (       1 calls)

     Called by c_bands:
     init_us_2    :      0.00s CPU      0.00s WALL (       8 calls)
     cegterg      :     20.14s CPU     22.72s WALL (      20 calls)

     Called by *egterg:
     h_psi        :     17.26s CPU     20.24s WALL (     336 calls)
     s_psi        :      0.02s CPU      0.03s WALL (     336 calls)
     g_psi        :      0.08s CPU      0.02s WALL (     308 calls)
     cdiaghg      :      1.05s CPU      1.05s WALL (     316 calls)

     Called by h_psi:
     add_vuspsi   :      0.04s CPU      0.03s WALL (     336 calls)

     General routines
     calbec       :      0.19s CPU      0.27s WALL (     336 calls)
     fft          :      0.24s CPU      0.33s WALL (      12 calls)
     ffts         :      0.04s CPU      0.08s WALL (       1 calls)
     fftw         :     16.94s CPU     19.77s WALL (    2886 calls)
     interpolate  :      0.09s CPU      0.17s WALL (       1 calls)
     davcio       :      0.00s CPU      0.00s WALL (       8 calls)
 
     Parallel routines
     fft_scatter  :     16.27s CPU     19.10s WALL (    2899 calls)
 
     PWSCF        :    24.15s CPU        28.19s WALL

 
   This run was terminated on:  11:12:14   1Aug2013            

=------------------------------------------------------------------------------=
   JOB DONE.
=------------------------------------------------------------------------------=
