
     Program POST-PROC v.3.2cvs starts ...
     Today is 14Oct2006 at  6:16:53 

     nbndx  =    10  nbnd   =    10  natomwfc =     9  npwx   =   11303
     nelec  =  11.00  nkb   =     8  ngl    =    4885

     Check: negative/imaginary core charge=   -0.000021    0.000000
