
     Program POST-PROC v.3.2    starts ...
     Today is 16Jan2007 at 15:21:45 

     nbndx  =    10  nbnd   =    10  natomwfc =     9  npwx   =    4056
     nelec  =  11.00  nkb   =    18  ngl    =    4885

     negative rho (up, down):  0.100E-02 0.000E+00
