
     Program POST-PROC v.2.1.3  starts ...
     Today is 27Jul2005 at 16:35:37 

     Reading file cobalt_US.save ... 
     read complete

     Reading file cobalt_US.save ... 
     read complete

     nbndx  =    10  nbnd   =    10  natomwfc =     6  npwx   =    6495
     nelec  =    9.00 nkb   =    18  ngl    =   10279
  warning: negative or imaginary core charge    -0.000009    0.000000
