
     Program POST-PROC v.3.2    starts ...
     Today is  3Nov2006 at 19:44: 4 

     nbndx  =    24  nbnd   =    24  natomwfc =    48  npwx   =    5164
     nelec  =  48.00  nkb   =    54  ngl    =    2115
