
     Program POST-PROC v.3.1    starts ...
     Today is 12Apr2006 at 17:40:46 

     nbndx  =    24  nbnd   =    24  natomwfc =    48  npwx   =    1821
     nelec  =  48.00  nkb   =    72  ngl    =    2115
