
     Program POST-PROC v.2.1.5  starts ...
     Today is 17Oct2005 at 20:46:34 

     Reading file wurtzite.save ... 
     read complete

     Reading file wurtzite.save ... 
     read complete

     nbndx  =    24  nbnd   =    24  natomwfc =    48  npwx   =    6761
     nelec  =   48.00 nkb   =    54  ngl    =    2701
