
     Program POST-PROC v.2.1.5  starts ...
     Today is 10Jan2006 at 13:58:13 

     Reading file zincblend_US.save ... 
     read complete

     Reading file zincblend_US.save ... 
     read complete

     nbndx  =    24  nbnd   =    24  natomwfc =    48  npwx   =    1833
     nelec  =   48.00 nkb   =    72  ngl    =    2128
