
     Program POST-PROC v.3.2    starts ...
     Today is  3Nov2006 at 20:32:28 

     nbndx  =    24  nbnd   =    24  natomwfc =    48  npwx   =    1833
     nelec  =  48.00  nkb   =    72  ngl    =    2121
