
     Program POST-PROC v.2.1.5  starts ...
     Today is 31Jan2006 at 15:20:46 

     Reading file zincblend.save ... 
     read complete

     Reading file zincblend.save ... 
     read complete

     nbndx  =    24  nbnd   =    24  natomwfc =    48  npwx   =    6761
     nelec  =   48.00 nkb   =    54  ngl    =    2701
