
     Program POST-PROC v.3.0    starts ...
     Today is  2Dec2005 at 21:42:42 

     Reading file wurtzite_US.save ...      only dimensions
     read complete

     Reading file wurtzite_US.save ...      all except wavefuctions
     read complete

     nbndx  =    24  nbnd   =    24  natomwfc =    48  npwx   =    1833
     nelec  =  48.00  nkb   =    72  ngl    =    2128
