
     Program PWSCF v.> 4.2      starts on  8Oct2010 at 19: 8:41 

     This program is part of the open-source Quantum ESPRESSO suite
     for quantum simulation of materials; please cite
         "P. Giannozzi et al., J. Phys.:Condens. Matter 21 395502 (2009);
          URL http://www.quantum-espresso.org", 
     in publications or presentations arising from this work. More details at
     http://www.quantum-espresso.org/wiki/index.php/Citing_Quantum-ESPRESSO

     Parallel version (MPI), running on     6 processors
     R & G space division:  proc/pool =    6

     Current dimensions of program PWSCF are:
     Max number of different atomic species (ntypx) = 10
     Max number of k-points (npk) =  40000
     Max angular momentum in pseudopotentials (lmaxx) =  3
     Waiting for input...

     XC functional enforced from input :
     Exchange-correlation      = PBE (1434)
     EXX-fraction              =        0.00
     !!! Any further DFT definition will be discarded
     !!! Please, verify this is what you really want !


     Atomic positions and unit cell read from directory:
     ./SCRATCH/au_bulk.save/
 

     Subspace diagonalization in iterative solution of the eigenvalue problem:
     a serial algorithm will be used

     Found symmetry operation: I + (  0.0000  0.0000  0.2500)
     This is a supercell, fractional translation are disabled

     Planes per process (thick) : nr3 =  80 npp =   14 ncplane =  4096
     Planes per process (smooth): nr3s=  60 npps=   10 ncplanes=  2025
 
     Proc/  planes cols     G    planes cols    G      columns  G
     Pool       (dense grid)       (smooth grid)      (wavefct grid)
        1    14    525    27933   10    263     9895     70     1364
        2    14    525    27933   10    263     9897     70     1364
        3    13    524    27928   10    263     9889     70     1364
        4    13    525    27931   10    264     9900     70     1364
        5    13    525    27931   10    264     9898     71     1367
        6    13    525    27931   10    264     9902     70     1362
     tot     80   3149   167587   60   1581    59381    421     8185
 


     bravais-lattice index     =            8
     lattice parameter (a_0)   =      15.0000  a.u.
     unit-cell volume          =    4251.8855 (a.u.)^3
     number of atoms/cell      =            4
     number of atomic types    =            1
     number of electrons       =        44.00
     number of Kohn-Sham states=           40
     kinetic-energy cutoff     =      22.0000  Ry
     charge density cutoff     =     176.0000  Ry
     Exchange-correlation      = PBE (1434)
     EXX-fraction              =        0.00

     celldm(1)=  15.000000  celldm(2)=   1.000000  celldm(3)=   1.259818
     celldm(4)=   0.000000  celldm(5)=   0.000000  celldm(6)=   0.000000

     crystal axes: (cart. coord. in units of a_0)
               a(1) = (   1.000000   0.000000   0.000000 )  
               a(2) = (   0.000000   1.000000   0.000000 )  
               a(3) = (   0.000000   0.000000   1.259818 )  

     reciprocal axes: (cart. coord. in units 2 pi/a_0)
               b(1) = (  1.000000  0.000000  0.000000 )  
               b(2) = (  0.000000  1.000000  0.000000 )  
               b(3) = (  0.000000  0.000000  0.793766 )  


     PseudoPot. # 1 for Au read from file Au.pw91-d-van.UPF
     MD5 check sum: dc02f59ef2ea6b62d9e9493d750aaae0
     Pseudo is Ultrasoft, Zval = 11.0
     Generated by new atomic code, or converted to UPF format
     Using radial grid of  939 points,  6 beta functions with: 
                l(1) =   0
                l(2) =   0
                l(3) =   1
                l(4) =   1
                l(5) =   2
                l(6) =   2
     Q(r) pseudized with  3 coefficients,  rinner =    1.600   1.800   1.600
                                                       1.600   1.800

     atomic species   valence    mass     pseudopotential
        Au            11.00   196.96650     Au( 1.00)

     No symmetry found

   Cartesian axes

     site n.     atom                  positions (a_0 units)
         1           Au  tau(  1) = (   0.0000000   0.0000000  -0.6299087  )
         2           Au  tau(  2) = (   0.0000000   0.0000000  -0.3149544  )
         3           Au  tau(  3) = (   0.0000000   0.0000000   0.0000000  )
         4           Au  tau(  4) = (   0.0000000   0.0000000   0.3149544  )

     number of k points=     8  gaussian smearing, width (Ry)=  0.0100
                       cart. coord. in units 2pi/a_0
        k(    1) = (   0.0000000   0.0000000   0.0496103), wk =   0.2500000
        k(    2) = (   0.0000000   0.0000000   0.1488310), wk =   0.2500000
        k(    3) = (   0.0000000   0.0000000   0.2480517), wk =   0.2500000
        k(    4) = (   0.0000000   0.0000000   0.3472724), wk =   0.2500000
        k(    5) = (   0.0000000   0.0000000  -0.3472724), wk =   0.2500000
        k(    6) = (   0.0000000   0.0000000  -0.2480517), wk =   0.2500000
        k(    7) = (   0.0000000   0.0000000  -0.1488310), wk =   0.2500000
        k(    8) = (   0.0000000   0.0000000  -0.0496103), wk =   0.2500000

     G cutoff = 1003.0797  ( 167587 G-vectors)     FFT grid: ( 64, 64, 80)
     G cutoff =  501.5399  (  59381 G-vectors)  smooth grid: ( 45, 45, 60)

     Largest allocated arrays     est. size (Mb)     dimensions
        Kohn-Sham Wavefunctions         0.76 Mb     (   1238,  40)
        NL pseudopotentials             1.36 Mb     (   1238,  72)
        Each V/rho on FFT grid          0.88 Mb     (  57344)
        Each G-vector array             0.21 Mb     (  27933)
        G-vector shells                 0.06 Mb     (   7680)
     Largest temporary arrays     est. size (Mb)     dimensions
        Auxiliary wavefunctions         3.02 Mb     (   1238, 160)
        Each subspace H/S matrix        0.39 Mb     (    160, 160)
        Each <psi_i|beta_j> matrix      0.04 Mb     (     72,  40)

     The potential is recalculated from file :
     ./SCRATCH/au_bulk.save/charge-density.dat


     negative rho (up, down):  0.167E-02 0.000E+00
     Starting wfc are   36 atomic +    4 random wfc

     total cpu time spent up to now is      1.12 secs

     per-process dynamical memory:    34.1 Mb

     Band Structure Calculation
     Davidson diagonalization with overlap

     ethr =  2.27E-11,  avg # of iterations = 40.4

     total cpu time spent up to now is     27.40 secs

     End of band structure calculation

          k = 0.0000 0.0000 0.0496     band energies (ev):

    -9.8044  -7.5023  -7.5023  -7.1280  -6.4793  -6.3214  -6.3214  -6.0193
    -6.0193  -5.8426  -5.8405  -5.5494  -5.5480  -5.5329  -5.4833  -5.4819
    -5.1699  -5.1685  -4.7144  -4.4420  -4.3801  -4.1935  -4.1935  -0.0871
    -0.0871   0.5514   1.6078   1.9355   1.9355   2.3820   2.3820   2.8793
     2.9506   3.1866   3.2446   4.2141   4.5281   4.5281   4.5754   4.8782

          k = 0.0000 0.0000 0.1488     band energies (ev):

    -9.7014  -7.7486  -7.4571  -7.4571  -6.5989  -6.5989  -5.8575  -5.8305
    -5.8284  -5.7007  -5.7007  -5.6135  -5.6120  -5.5042  -5.4175  -5.4161
    -5.1839  -5.1822  -4.9285  -4.4335  -4.2993  -4.2993  -4.0692  -0.1478
     0.0150   0.0150   1.5179   1.5179   1.6531   2.5606   2.8562   2.8562
     2.9957   3.6570   3.8980   3.9147   4.5817   4.5817   4.9208   4.9821

          k = 0.0000 0.0000 0.2481     band energies (ev):

    -9.4966  -8.3101  -7.3674  -7.3674  -6.8468  -6.8468  -5.8065  -5.8045
    -5.6735  -5.6718  -5.4467  -5.3748  -5.3748  -5.3550  -5.3537  -5.3402
    -5.2107  -5.2092  -5.1033  -4.5416  -4.4941  -4.4941  -3.5356  -1.0514
     0.2055   0.2055   1.1307   1.1307   1.7437   2.2879   3.0859   3.3564
     3.3564   3.6272   4.1173   4.6882   4.6882   4.8818   4.9520   4.9520

          k = 0.0000 0.0000 0.3473     band energies (ev):

    -9.1931  -8.7952  -7.2339  -7.2339  -7.0597  -7.0597  -5.7715  -5.7697
    -5.7267  -5.7249  -5.3608  -5.2981  -5.2968  -5.2491  -5.2477  -5.2466
    -5.0541  -5.0541  -4.9670  -4.7540  -4.7540  -4.7129  -2.8194  -1.9685
     0.4653   0.4653   0.7776   0.7776   1.8796   2.0610   3.2212   3.4016
     3.8794   3.8794   4.4173   4.4173   4.6260   4.8463   4.8463   5.0543

          k = 0.0000 0.0000-0.3473     band energies (ev):

    -9.1931  -8.7952  -7.2339  -7.2339  -7.0597  -7.0597  -5.7715  -5.7697
    -5.7267  -5.7249  -5.3608  -5.2981  -5.2968  -5.2491  -5.2477  -5.2466
    -5.0541  -5.0541  -4.9670  -4.7540  -4.7540  -4.7129  -2.8194  -1.9685
     0.4653   0.4653   0.7776   0.7776   1.8796   2.0610   3.2212   3.4016
     3.8794   3.8794   4.4173   4.4173   4.6260   4.8463   4.8463   5.0543

          k = 0.0000 0.0000-0.2481     band energies (ev):

    -9.4966  -8.3101  -7.3674  -7.3674  -6.8468  -6.8468  -5.8065  -5.8045
    -5.6735  -5.6718  -5.4467  -5.3748  -5.3748  -5.3550  -5.3537  -5.3402
    -5.2107  -5.2092  -5.1033  -4.5416  -4.4941  -4.4941  -3.5356  -1.0514
     0.2055   0.2055   1.1307   1.1307   1.7437   2.2879   3.0859   3.3564
     3.3564   3.6272   4.1173   4.6882   4.6882   4.8818   4.9520   4.9520

          k = 0.0000 0.0000-0.1488     band energies (ev):

    -9.7014  -7.7486  -7.4571  -7.4571  -6.5989  -6.5989  -5.8575  -5.8305
    -5.8284  -5.7007  -5.7007  -5.6135  -5.6120  -5.5042  -5.4175  -5.4161
    -5.1839  -5.1822  -4.9285  -4.4335  -4.2993  -4.2993  -4.0692  -0.1478
     0.0150   0.0150   1.5179   1.5179   1.6531   2.5606   2.8562   2.8562
     2.9957   3.6570   3.8980   3.9147   4.5817   4.5817   4.9208   4.9821

          k = 0.0000 0.0000-0.0496     band energies (ev):

    -9.8044  -7.5023  -7.5023  -7.1280  -6.4793  -6.3214  -6.3214  -6.0193
    -6.0193  -5.8426  -5.8405  -5.5494  -5.5480  -5.5329  -5.4833  -5.4819
    -5.1699  -5.1685  -4.7144  -4.4420  -4.3801  -4.1935  -4.1935  -0.0871
    -0.0871   0.5514   1.6078   1.9355   1.9355   2.3820   2.3820   2.8793
     2.9506   3.1866   3.2446   4.2141   4.5281   4.5281   4.5754   4.8782

     the Fermi energy is    -4.1796 ev

     Writing output data file au_bulk.save
 
     init_run     :      0.99s CPU      1.00s WALL (       1 calls)
     electrons    :     26.23s CPU     26.28s WALL (       1 calls)

     Called by init_run:
     wfcinit      :      0.00s CPU      0.00s WALL (       1 calls)
     potinit      :      0.12s CPU      0.13s WALL (       1 calls)

     Called by electrons:
     c_bands      :     26.23s CPU     26.28s WALL (       1 calls)
     v_of_rho     :      0.08s CPU      0.09s WALL (       1 calls)
     newd         :      0.45s CPU      0.45s WALL (       1 calls)

     Called by c_bands:
     init_us_2    :      0.00s CPU      0.01s WALL (       8 calls)
     cegterg      :     25.13s CPU     25.17s WALL (      21 calls)

     Called by *egterg:
     h_psi        :     15.94s CPU     15.92s WALL (     352 calls)
     s_psi        :      0.71s CPU      0.74s WALL (     352 calls)
     g_psi        :      0.17s CPU      0.19s WALL (     323 calls)
     cdiaghg      :      2.45s CPU      2.47s WALL (     331 calls)

     Called by h_psi:
     add_vuspsi   :      0.73s CPU      0.73s WALL (     352 calls)

     General routines
     calbec       :      1.15s CPU      1.11s WALL (     352 calls)
     fft          :      0.06s CPU      0.07s WALL (      12 calls)
     ffts         :      0.00s CPU      0.00s WALL (       1 calls)
     fftw         :     12.54s CPU     12.56s WALL (   11778 calls)
     interpolate  :      0.01s CPU      0.01s WALL (       1 calls)
     davcio       :      0.00s CPU      0.01s WALL (      16 calls)
 
     Parallel routines
     fft_scatter  :      4.75s CPU      4.74s WALL (   11791 calls)
 
     PWSCF        :    27.74s CPU        27.89s WALL

 
   This run was terminated on:  19: 9: 9   8Oct2010            

=------------------------------------------------------------------------------=
   JOB DONE.
=------------------------------------------------------------------------------=
