
     Program POST-PROC v.2.1.5  starts ...
     Today is  6Oct2005 at 15:28:11 

     Reading file zincblend_US.save ... 
     read complete

     Reading file zincblend_US.save ... 
     read complete

     nbndx  =    24  nbnd   =    24  natomwfc =    48  npwx   =    1833
     nelec  =   48.00 nkb   =    72  ngl    =    2128
