
     Program POST-PROC v.2.0.4  starts ...
     Today is 22Nov2004 at 17:50:15 

     nbndx  =    20  nbnd   =    20  natomwfc =     4  npwx   =    2247
     nelec  =    3.00 nkb   =     4  ngl    =    1119
 Crystal basis vectors, in unit of alat =    20.0000000000000     
 a(1)  1.000000  0.000000  0.000000
 a(2)  0.000000  1.000000  0.000000
 a(3)  0.000000  0.000000  0.283460
 Atomic positions ( lattice coordinates )
 Specie Al  atoms =            1
 tau(1)  0.000000  0.000000  0.000000
 Atomic positions ( From PW )
 tau(1)  0.000000  0.000000  0.000000
 k    12247  151.981775    0.000000    0.000000    0.000000 0
 k    22243  151.981775    0.000000    0.000000    0.176392 0
 k    32235  151.981775    0.000000    0.000000    0.352783 0
 k    42231  151.981775    0.000000    0.000000    0.529175 0
 k    52231  151.981775    0.000000    0.000000    0.705567 0
 k    62223  151.981775    0.000000    0.000000    0.881959 0
 k    72243  151.981775    0.000000    0.000000    1.058350 0
 k    82219  151.981775    0.000000    0.000000    1.234742 0
 k    92207  151.981775    0.000000    0.000000    1.411134 0
 k   102211  151.981775    0.000000    0.000000    1.587526 0
 k   112198  151.981775    0.000000    0.000000    1.763917 0
 k   122211  151.981775    0.000000    0.000000    1.940309 0
 k   132207  151.981775    0.000000    0.000000    2.116701 0
 k   142219  151.981775    0.000000    0.000000    2.293092 0
 k   152243  151.981775    0.000000    0.000000    2.469484 0
 k   162223  151.981775    0.000000    0.000000    2.645876 0
 k   172231  151.981775    0.000000    0.000000    2.822268 0
 k   182231  151.981775    0.000000    0.000000    2.998660 0
 k   192235  151.981775    0.000000    0.000000    3.175051 0
 k   202243  151.981775    0.000000    0.000000    3.351443 0
 Wave function dimensions ( npwx, nbnd, nkstot, nspin) =         2247
          20          20           1
 combining indexes
 Grid  ( nr1, nr2, nr3, ngm_g, npw_g, ikw ) =           50          50
          15       17737        4322          20
 K-points (reciprocal lattice coordinates) 
 ik =   1  0.000000  0.000000  0.000000 0
 ik =   2  0.000000  0.000000  0.176392 0
 ik =   3  0.000000  0.000000  0.352783 0
 ik =   4  0.000000  0.000000  0.529175 0
 ik =   5  0.000000  0.000000  0.705567 0
 ik =   6  0.000000  0.000000  0.881959 0
 ik =   7  0.000000  0.000000  1.058350 0
 ik =   8  0.000000  0.000000  1.234742 0
 ik =   9  0.000000  0.000000  1.411134 0
 ik =  10  0.000000  0.000000  1.587526 0
 ik =  11  0.000000  0.000000  1.763917 0
 ik =  12  0.000000  0.000000  1.940309 0
 ik =  13  0.000000  0.000000  2.116701 0
 ik =  14  0.000000  0.000000  2.293092 0
 ik =  15  0.000000  0.000000  2.469484 0
 ik =  16  0.000000  0.000000  2.645876 0
 ik =  17  0.000000  0.000000  2.822268 0
 ik =  18  0.000000  0.000000  2.998660 0
 ik =  19  0.000000  0.000000  3.175051 0
 ik =  20  0.000000  0.000000  3.351443 0
 K-points in unit of 2PI/alat (cartesian coordinates) 
 ik =   1  0.000000  0.000000  0.000000 0
 ik =   2  0.000000  0.000000  0.050000 0
 ik =   3  0.000000  0.000000  0.100000 0
 ik =   4  0.000000  0.000000  0.150000 0
 ik =   5  0.000000  0.000000  0.200000 0
 ik =   6  0.000000  0.000000  0.250000 0
 ik =   7  0.000000  0.000000  0.300000 0
 ik =   8  0.000000  0.000000  0.350000 0
 ik =   9  0.000000  0.000000  0.400000 0
 ik =  10  0.000000  0.000000  0.450000 0
 ik =  11  0.000000  0.000000  0.500000 0
 ik =  12  0.000000  0.000000  0.550000 0
 ik =  13  0.000000  0.000000  0.600000 0
 ik =  14  0.000000  0.000000  0.650000 0
 ik =  15  0.000000  0.000000  0.700000 0
 ik =  16  0.000000  0.000000  0.750000 0
 ik =  17  0.000000  0.000000  0.800000 0
 ik =  18  0.000000  0.000000  0.850000 0
 ik =  19  0.000000  0.000000  0.900000 0
 ik =  20  0.000000  0.000000  0.950000 0
