
     Program POST-PROC v.2.1.5  starts ...
     Today is 10Oct2005 at  8:47:50 

     Reading file al.save ... 
     read complete

     Reading file al.save ... 
     read complete

     nbndx  =    20  nbnd   =    20  natomwfc =     4  npwx   =    2247
     nelec  =    3.00 nkb   =     4  ngl    =    1119
