
     Program POST-PROC v.2.1.5  starts ...
     Today is 10Oct2005 at 11:20:40 

     Reading file benzene_US.save ... 
     read complete

     Reading file benzene_US.save ... 
     read complete

     nbndx  =    40  nbnd   =    40  natomwfc =    30  npwx   =   12053
     nelec  =   30.00 nkb   =    54  ngl    =    1691
