
     Program POST-PROC v.2.1.3  starts ...
     Today is  1Aug2005 at 12:52:17 

     Reading file benzene.save ... 
     read complete

     Reading file benzene.save ... 
     read complete

     nbndx  =    40  nbnd   =    40  natomwfc =    30  npwx   =   28017
     nelec  =   30.00 nkb   =     6  ngl    =    1185
