
     Program POST-PROC v.2.1.5  starts ...
     Today is 10Oct2005 at  8:59: 3 

     Reading file gold_US.save ... 
     read complete

     Reading file gold_US.save ... 
     read complete

     nbndx  =    20  nbnd   =    20  natomwfc =    18  npwx   =    8007
     nelec  =   22.00 nkb   =    36  ngl    =    9453
