
     Program PWSCF v.5.0.2 (svn rev. 9392) starts on 18Apr2014 at 13:17:47 

     This program is part of the open-source Quantum ESPRESSO suite
     for quantum simulation of materials; please cite
         "P. Giannozzi et al., J. Phys.:Condens. Matter 21 395502 (2009);
          URL http://www.quantum-espresso.org", 
     in publications or presentations arising from this work. More details at
     http://www.quantum-espresso.org/quote.php

     Parallel version (MPI), running on     6 processors
     R & G space division:  proc/nbgrp/npool/nimage =       6

     Current dimensions of program PWSCF are:
     Max number of different atomic species (ntypx) = 10
     Max number of k-points (npk) =  40000
     Max angular momentum in pseudopotentials (lmaxx) =  3
     Reading input from /home/ferretti/devel/want/tests/test13/nscf_H6_qe.in
               file H.pz-rrkjus.UPF: wavefunction(s)  1S renormalized

     Atomic positions and unit cell read from directory:
     ./SCRATCH/hydrogen_H6.save/
 

     Subspace diagonalization in iterative solution of the eigenvalue problem:
     a serial algorithm will be used

     Found symmetry operation: I + (  0.0000  0.0000 -0.5000)
     This is a supercell, fractional translations are disabled
 
     Parallelization info
     --------------------
     sticks:   dense  smooth     PW     G-vecs:    dense   smooth      PW
     Min        1060     530    142                60798    21480    2968
     Max        1062     531    143                60799    21495    2971
     Sum        6369    3181    853               364789   128913   17811
 


     bravais-lattice index     =            8
     lattice parameter (alat)  =      20.0000  a.u.
     unit-cell volume          =    7637.4567 (a.u.)^3
     number of atoms/cell      =            6
     number of atomic types    =            1
     number of electrons       =         6.00
     number of Kohn-Sham states=            7
     kinetic-energy cutoff     =      25.0000  Ry
     charge density cutoff     =     200.0000  Ry
     Exchange-correlation      =  SLA  PZ   NOGX NOGC ( 1 1 0 0 0)
     EXX-fraction              =        0.00

     celldm(1)=  20.000000  celldm(2)=   1.000000  celldm(3)=   0.954682
     celldm(4)=   0.000000  celldm(5)=   0.000000  celldm(6)=   0.000000

     crystal axes: (cart. coord. in units of alat)
               a(1) = (   1.000000   0.000000   0.000000 )  
               a(2) = (   0.000000   1.000000   0.000000 )  
               a(3) = (   0.000000   0.000000   0.954682 )  

     reciprocal axes: (cart. coord. in units 2 pi/alat)
               b(1) = (  1.000000  0.000000  0.000000 )  
               b(2) = (  0.000000  1.000000  0.000000 )  
               b(3) = (  0.000000  0.000000  1.047469 )  


     PseudoPot. # 1 for H  read from file:
     ../pseudo/H.pz-rrkjus.UPF
     MD5 check sum: c325bf28c048744aca8614a82587641e
     Pseudo is Ultrasoft, Zval =  1.0
     Generated by new atomic code, or converted to UPF format
     Using radial grid of 1061 points,  2 beta functions with: 
                l(1) =   0
                l(2) =   0
     Q(r) pseudized with 0 coefficients 


     atomic species   valence    mass     pseudopotential
        H              1.00     1.00800     H ( 1.00)

     16 Sym. Ops., with inversion, found



   Cartesian axes

     site n.     atom                  positions (alat units)
         1           H   tau(   1) = (   0.0000000   0.0000000   0.0000000  )
         2           H   tau(   2) = (   0.0000000   0.0000000  -0.4773409  )
         3           H   tau(   3) = (   0.0000000   0.0000000   0.3182273  )
         4           H   tau(   4) = (   0.0000000   0.0000000  -0.3182273  )
         5           H   tau(   5) = (   0.0000000   0.0000000   0.1591136  )
         6           H   tau(   6) = (   0.0000000   0.0000000  -0.1591136  )

     number of k points=     4  gaussian smearing, width (Ry)=  0.0100
                       cart. coord. in units 2pi/alat
        k(    1) = (   0.0000000   0.0000000  -0.5237346), wk =   0.5000000
        k(    2) = (   0.0000000   0.0000000  -0.2618673), wk =   0.5000000
        k(    3) = (   0.0000000   0.0000000   0.0000000), wk =   0.5000000
        k(    4) = (   0.0000000   0.0000000   0.2618673), wk =   0.5000000

     Dense  grid:   364789 G-vectors     FFT dimensions: (  96,  96,  90)

     Smooth grid:   128913 G-vectors     FFT dimensions: (  64,  64,  64)

     Largest allocated arrays     est. size (Mb)     dimensions
        Kohn-Sham Wavefunctions         0.29 Mb     (   2698,    7)
        NL pseudopotentials             0.49 Mb     (   2698,   12)
        Each V/rho on FFT grid          2.11 Mb     ( 138240)
        Each G-vector array             0.46 Mb     (  60798)
        G-vector shells                 0.11 Mb     (  14722)
     Largest temporary arrays     est. size (Mb)     dimensions
        Auxiliary wavefunctions         1.15 Mb     (   2698,   28)
        Each subspace H/S matrix        0.01 Mb     (  28,  28)
        Each <psi_i|beta_j> matrix      0.00 Mb     (     12,    7)

     The potential is recalculated from file :
     ./SCRATCH/hydrogen_H6.save/charge-density.dat


     negative rho (up, down):  0.708E-04 0.000E+00
     Starting wfc are    6 randomized atomic wfcs

     total cpu time spent up to now is        0.7 secs

     per-process dynamical memory:    31.5 Mb

     Band Structure Calculation
     Davidson diagonalization with overlap

     ethr =  1.67E-10,  avg # of iterations = 41.8

     total cpu time spent up to now is        3.3 secs

     End of band structure calculation

          k = 0.0000 0.0000-0.5237     band energies (ev):

    -9.1124  -9.1124  -6.3966  -6.3966  -1.5913  -1.5913   0.2424

          k = 0.0000 0.0000-0.2619     band energies (ev):

    -9.3716  -8.6822  -7.3185  -5.3281  -2.8588  -0.5399  -0.0329

          k = 0.0000 0.0000 0.0000     band energies (ev):

    -9.4580  -8.0826  -8.0826  -4.1345  -4.1345  -0.1247  -0.0978

          k = 0.0000 0.0000 0.2619     band energies (ev):

    -9.3716  -8.6822  -7.3185  -5.3281  -2.8588  -0.5399  -0.0329

     the Fermi energy is    -6.3966 ev

     Writing output data file hydrogen_H6.save
 
     init_run     :      0.59s CPU      0.60s WALL (       1 calls)
     electrons    :      2.59s CPU      2.63s WALL (       1 calls)

     Called by init_run:
     wfcinit      :      0.00s CPU      0.00s WALL (       1 calls)
     potinit      :      0.12s CPU      0.13s WALL (       1 calls)

     Called by electrons:
     c_bands      :      2.59s CPU      2.63s WALL (       1 calls)
     v_of_rho     :      0.03s CPU      0.03s WALL (       1 calls)
     newd         :      0.04s CPU      0.04s WALL (       1 calls)

     Called by c_bands:
     init_us_2    :      0.00s CPU      0.00s WALL (       4 calls)
     cegterg      :      2.45s CPU      2.47s WALL (      10 calls)

     Called by *egterg:
     h_psi        :      2.22s CPU      2.20s WALL (     181 calls)
     s_psi        :      0.00s CPU      0.02s WALL (     181 calls)
     g_psi        :      0.01s CPU      0.03s WALL (     167 calls)
     cdiaghg      :      0.10s CPU      0.05s WALL (     171 calls)

     Called by h_psi:
     add_vuspsi   :      0.02s CPU      0.03s WALL (     181 calls)

     General routines
     calbec       :      0.03s CPU      0.06s WALL (     181 calls)
     fft          :      0.06s CPU      0.06s WALL (       5 calls)
     ffts         :      0.00s CPU      0.00s WALL (       1 calls)
     fftw         :      1.64s CPU      1.65s WALL (     928 calls)
     interpolate  :      0.01s CPU      0.02s WALL (       1 calls)
     davcio       :      0.00s CPU      0.00s WALL (       8 calls)
 
     Parallel routines
     fft_scatter  :      0.57s CPU      0.59s WALL (     934 calls)
 
     PWSCF        :     3.45s CPU         3.57s WALL

 
   This run was terminated on:  13:17:51  18Apr2014            

=------------------------------------------------------------------------------=
   JOB DONE.
=------------------------------------------------------------------------------=
