
     Program POST-PROC v.3.2    starts ...
     Today is 25Jan2007 at 17:20:12 

     nbndx  =    20  nbnd   =    20  natomwfc =     6  npwx   =     190
     nelec  =  11.00  nkb   =    13  ngl    =      84
