
     Program PWSCF v.5.0.1 starts on 28Feb2013 at 10: 6:52 

     This program is part of the open-source Quantum ESPRESSO suite
     for quantum simulation of materials; please cite
         "P. Giannozzi et al., J. Phys.:Condens. Matter 21 395502 (2009);
          URL http://www.quantum-espresso.org", 
     in publications or presentations arising from this work. More details at
     http://www.quantum-espresso.org/quote.php

     Parallel version (MPI), running on     6 processors
     R & G space division:  proc/pool =    6

     Current dimensions of program PWSCF are:
     Max number of different atomic species (ntypx) = 10
     Max number of k-points (npk) =  40000
     Max angular momentum in pseudopotentials (lmaxx) =  3
     Reading input from /home/ferretti/want/tests/test16/nscf_PA.in
               file H.pz-vbc.UPF: wavefunction(s)  1S renormalized

     Atomic positions and unit cell read from directory:
     ./SCRATCH/poly_pa.save/
     Nothing found: using input atomic positions and unit cell


     Subspace diagonalization in iterative solution of the eigenvalue problem:
     a serial algorithm will be used

 
     Parallelization info
     --------------------
     sticks:   dense  smooth     PW     G-vecs:    dense   smooth      PW
     Min        1907    1907    584                23948    23948    4049
     Max        1909    1909    586                23949    23949    4050
     Sum       11449   11449   3513               143691   143691   24299
 


     bravais-lattice index     =            8
     lattice parameter (alat)  =      30.0000  a.u.
     unit-cell volume          =    4200.2820 (a.u.)^3
     number of atoms/cell      =            4
     number of atomic types    =            2
     number of electrons       =        10.00
     number of Kohn-Sham states=           15
     kinetic-energy cutoff     =      40.0000  Ry
     charge density cutoff     =     160.0000  Ry
     Exchange-correlation      =  SLA  PZ   NOGX NOGC ( 1 1 0 0 0)
     EXX-fraction              =        0.00

     celldm(1)=  30.000000  celldm(2)=   1.000000  celldm(3)=   0.155566
     celldm(4)=   0.000000  celldm(5)=   0.000000  celldm(6)=   0.000000

     crystal axes: (cart. coord. in units of alat)
               a(1) = (   1.000000   0.000000   0.000000 )  
               a(2) = (   0.000000   1.000000   0.000000 )  
               a(3) = (   0.000000   0.000000   0.155566 )  

     reciprocal axes: (cart. coord. in units 2 pi/alat)
               b(1) = (  1.000000  0.000000  0.000000 )  
               b(2) = (  0.000000  1.000000  0.000000 )  
               b(3) = (  0.000000  0.000000  6.428140 )  


     PseudoPot. # 1 for C  read from file:
     ../pseudo/C.pz-vbc.UPF
     MD5 check sum: ab53dd623bfeb79c5a7b057bc96eae20
     Pseudo is Norm-conserving, Zval =  4.0
     Generated by new atomic code, or converted to UPF format
     Using radial grid of  269 points,  1 beta functions with: 
                l(1) =   0

     PseudoPot. # 2 for H  read from file:
     ../pseudo/H.pz-vbc.UPF
     MD5 check sum: 90becb985b714f09656c73597998d266
     Pseudo is Norm-conserving, Zval =  1.0
     Generated by new atomic code, or converted to UPF format
     Using radial grid of  131 points,  0 beta functions with: 

     atomic species   valence    mass     pseudopotential
        C              4.00     1.00000     C ( 1.00)
        H              1.00     1.00000     H ( 1.00)

     No symmetry found



   Cartesian axes

     site n.     atom                  positions (alat units)
         1           C   tau(   1) = (   0.0000000   0.0000000  -0.0368990  )
         2           C   tau(   2) = (   0.0408396   0.0000000   0.0368992  )
         3           H   tau(   3) = (  -0.0678406   0.0000000  -0.0371833  )
         4           H   tau(   4) = (   0.1086802   0.0000000   0.0371835  )

     number of k points=    30
                       cart. coord. in units 2pi/alat
        k(    1) = (   0.0000000   0.0000000   0.0000000), wk =   0.0666667
        k(    2) = (   0.0000000   0.0000000   0.2142713), wk =   0.0666667
        k(    3) = (   0.0000000   0.0000000   0.4285427), wk =   0.0666667
        k(    4) = (   0.0000000   0.0000000   0.6428140), wk =   0.0666667
        k(    5) = (   0.0000000   0.0000000   0.8570853), wk =   0.0666667
        k(    6) = (   0.0000000   0.0000000   1.0713566), wk =   0.0666667
        k(    7) = (   0.0000000   0.0000000   1.2856280), wk =   0.0666667
        k(    8) = (   0.0000000   0.0000000   1.4998993), wk =   0.0666667
        k(    9) = (   0.0000000   0.0000000   1.7141706), wk =   0.0666667
        k(   10) = (   0.0000000   0.0000000   1.9284419), wk =   0.0666667
        k(   11) = (   0.0000000   0.0000000   2.1427133), wk =   0.0666667
        k(   12) = (   0.0000000   0.0000000   2.3569846), wk =   0.0666667
        k(   13) = (   0.0000000   0.0000000   2.5712559), wk =   0.0666667
        k(   14) = (   0.0000000   0.0000000   2.7855273), wk =   0.0666667
        k(   15) = (   0.0000000   0.0000000   2.9997986), wk =   0.0666667
        k(   16) = (   0.0000000   0.0000000  -3.2140699), wk =   0.0666667
        k(   17) = (   0.0000000   0.0000000  -2.9997986), wk =   0.0666667
        k(   18) = (   0.0000000   0.0000000  -2.7855273), wk =   0.0666667
        k(   19) = (   0.0000000   0.0000000  -2.5712559), wk =   0.0666667
        k(   20) = (   0.0000000   0.0000000  -2.3569846), wk =   0.0666667
        k(   21) = (   0.0000000   0.0000000  -2.1427133), wk =   0.0666667
        k(   22) = (   0.0000000   0.0000000  -1.9284419), wk =   0.0666667
        k(   23) = (   0.0000000   0.0000000  -1.7141706), wk =   0.0666667
        k(   24) = (   0.0000000   0.0000000  -1.4998993), wk =   0.0666667
        k(   25) = (   0.0000000   0.0000000  -1.2856280), wk =   0.0666667
        k(   26) = (   0.0000000   0.0000000  -1.0713566), wk =   0.0666667
        k(   27) = (   0.0000000   0.0000000  -0.8570853), wk =   0.0666667
        k(   28) = (   0.0000000   0.0000000  -0.6428140), wk =   0.0666667
        k(   29) = (   0.0000000   0.0000000  -0.4285427), wk =   0.0666667
        k(   30) = (   0.0000000   0.0000000  -0.2142713), wk =   0.0666667

     Dense  grid:   143691 G-vectors     FFT dimensions: ( 125, 125,  20)

     Largest allocated arrays     est. size (Mb)     dimensions
        Kohn-Sham Wavefunctions         0.69 Mb     (   3005,   15)
        NL pseudopotentials             0.09 Mb     (   3005,    2)
        Each V/rho on FFT grid          0.95 Mb     (  62500)
        Each G-vector array             0.18 Mb     (  23949)
        G-vector shells                 0.05 Mb     (   6184)
     Largest temporary arrays     est. size (Mb)     dimensions
        Auxiliary wavefunctions         2.75 Mb     (   3005,   60)
        Each subspace H/S matrix        0.05 Mb     (  60,  60)
        Each <psi_i|beta_j> matrix      0.00 Mb     (      2,   15)

     The potential is recalculated from file :
     ./SCRATCH/poly_pa.save/charge-density.dat

     Starting wfc are   10 randomized atomic wfcs

     total cpu time spent up to now is        0.2 secs

     per-process dynamical memory:    14.9 Mb

     Band Structure Calculation
     Davidson diagonalization with overlap

     ethr =  1.00E-10,  avg # of iterations = 53.1

     total cpu time spent up to now is       98.5 secs

     End of band structure calculation

          k = 0.0000 0.0000 0.0000     band energies (ev):

   -20.5452 -13.9796  -8.9286  -8.9224  -7.9802  -0.2266  -0.0902   0.3023
     0.5494   0.6240   0.6866   1.0824   1.2332   1.3969   1.5632

          k = 0.0000 0.0000 0.2143     band energies (ev):

   -20.5271 -13.9624  -8.9798  -8.8992  -8.0089  -0.1993  -0.0665   0.3204
     0.5766   0.6501   0.7129   1.1100   1.2605   1.4234   1.5860

          k = 0.0000 0.0000 0.4285     band energies (ev):

   -20.4719 -13.9108  -9.1466  -8.8255  -8.0771  -0.1182   0.0042   0.3723
     0.6584   0.7280   0.7920   1.1925   1.3424   1.5029   1.6536

          k = 0.0000 0.0000 0.6428     band energies (ev):

   -20.3801 -13.8262  -9.4396  -8.7033  -8.1522   0.0156   0.1205   0.4518
     0.7947   0.8569   0.9242   1.3297   1.4788   1.6346   1.7645

          k = 0.0000 0.0000 0.8571     band energies (ev):

   -20.2526 -13.7099  -9.8551  -8.5341  -8.2207   0.2005   0.2796   0.5464
     0.9855   1.0349   1.1103   1.5213   1.6698   1.8172   1.9163

          k = 0.0000 0.0000 1.0714     band energies (ev):

   -20.0886 -13.5660 -10.3519  -8.3171  -8.2847   0.4327   0.4792   0.6318
     1.2306   1.2599   1.3511   1.7671   1.9152   2.0471   2.1061

          k = 0.0000 0.0000 1.2856     band energies (ev):

   -19.8893 -13.4006 -10.9011  -8.3590  -8.0537   0.6689   0.6853   0.7371
     1.5301   1.5301   1.6471   2.0671   2.2148   2.3170   2.3338

          k = 0.0000 0.0000 1.4999     band energies (ev):

   -19.6535 -13.2310 -11.4570  -8.4519  -7.7417   0.6063   0.9308   1.0692
     1.8451   1.8840   1.9982   2.4212   2.5657   2.6074   2.6177

          k = 0.0000 0.0000 1.7142     band energies (ev):

   -19.3830 -13.1210 -11.9433  -8.5752  -7.3859   0.3950   1.1761   1.4547
     2.2073   2.2921   2.4042   2.8292   2.9218   2.9532   2.9840

          k = 0.0000 0.0000 1.9284     band energies (ev):

   -19.0786 -13.2591 -12.1599  -8.7344  -6.9864   0.0279   1.4184   1.8900
     2.6224   2.7543   2.8647   3.2909   3.3125   3.3422   3.4457

          k = 0.0000 0.0000 2.1427     band energies (ev):

   -18.7413 -13.7024 -12.0422  -8.9321  -6.5447  -0.4660   1.6655   2.3735
     3.0962   3.2705   3.3794   3.7714   3.7928   3.8111   3.9632

          k = 0.0000 0.0000 2.3570     band energies (ev):

   -18.3735 -14.2503 -11.7853  -9.1708  -6.0643  -1.0434   1.9348   2.9037
     3.6314   3.8405   3.9475   4.2984   4.3183   4.3785   4.5352

          k = 0.0000 0.0000 2.5713     band energies (ev):

   -17.9776 -14.8117 -11.4771  -9.4455  -5.5488  -1.6636   2.2447   3.4784
     4.2274   4.4638   4.5677   4.8902   4.9056   4.9974   5.1613

          k = 0.0000 0.0000 2.7855     band energies (ev):

   -17.5622 -15.3538 -11.1447  -9.7495  -5.0121  -2.2915   2.6083   4.0875
     4.6893   4.8911   5.1397   5.2354   5.5433   5.5637   5.6818

          k = 0.0000 0.0000 2.9998     band energies (ev):

   -17.1553 -15.8393 -10.8058 -10.0706  -4.4886  -2.8756   3.0289   4.0820
     4.7685   5.5965   5.8663   5.8729   6.2296   6.2523   6.2768

          k = 0.0000 0.0000-3.2141     band energies (ev):

   -16.9242 -16.0985 -10.5557 -10.3183  -4.1871  -3.1998   3.4153   3.6442
     5.4006   5.4701   6.3355   6.3915   6.6199   6.6344   6.7493

          k = 0.0000 0.0000-2.9998     band energies (ev):

   -17.1553 -15.8393 -10.8058 -10.0706  -4.4886  -2.8756   3.0289   4.0820
     4.7685   5.5965   5.8663   5.8729   6.2296   6.2523   6.2768

          k = 0.0000 0.0000-2.7855     band energies (ev):

   -17.5622 -15.3538 -11.1447  -9.7495  -5.0121  -2.2915   2.6083   4.0875
     4.6893   4.8911   5.1397   5.2354   5.5433   5.5637   5.6818

          k = 0.0000 0.0000-2.5713     band energies (ev):

   -17.9776 -14.8117 -11.4771  -9.4455  -5.5488  -1.6636   2.2447   3.4784
     4.2274   4.4638   4.5677   4.8902   4.9056   4.9974   5.1613

          k = 0.0000 0.0000-2.3570     band energies (ev):

   -18.3735 -14.2503 -11.7853  -9.1708  -6.0643  -1.0434   1.9348   2.9037
     3.6314   3.8405   3.9475   4.2984   4.3183   4.3785   4.5352

          k = 0.0000 0.0000-2.1427     band energies (ev):

   -18.7413 -13.7024 -12.0422  -8.9321  -6.5447  -0.4660   1.6655   2.3735
     3.0962   3.2705   3.3794   3.7714   3.7928   3.8111   3.9632

          k = 0.0000 0.0000-1.9284     band energies (ev):

   -19.0786 -13.2591 -12.1599  -8.7344  -6.9864   0.0279   1.4184   1.8900
     2.6224   2.7543   2.8647   3.2909   3.3125   3.3422   3.4457

          k = 0.0000 0.0000-1.7142     band energies (ev):

   -19.3830 -13.1210 -11.9433  -8.5752  -7.3859   0.3950   1.1761   1.4547
     2.2073   2.2921   2.4042   2.8292   2.9218   2.9532   2.9840

          k = 0.0000 0.0000-1.4999     band energies (ev):

   -19.6535 -13.2310 -11.4570  -8.4519  -7.7417   0.6063   0.9308   1.0692
     1.8451   1.8840   1.9982   2.4212   2.5657   2.6074   2.6177

          k = 0.0000 0.0000-1.2856     band energies (ev):

   -19.8893 -13.4006 -10.9011  -8.3590  -8.0537   0.6689   0.6853   0.7371
     1.5301   1.5301   1.6471   2.0671   2.2148   2.3170   2.3338

          k = 0.0000 0.0000-1.0714     band energies (ev):

   -20.0886 -13.5660 -10.3519  -8.3171  -8.2847   0.4327   0.4792   0.6318
     1.2306   1.2599   1.3511   1.7671   1.9152   2.0471   2.1061

          k = 0.0000 0.0000-0.8571     band energies (ev):

   -20.2526 -13.7099  -9.8551  -8.5341  -8.2207   0.2005   0.2796   0.5464
     0.9855   1.0349   1.1103   1.5213   1.6698   1.8172   1.9163

          k = 0.0000 0.0000-0.6428     band energies (ev):

   -20.3801 -13.8262  -9.4396  -8.7033  -8.1522   0.0156   0.1205   0.4518
     0.7947   0.8569   0.9242   1.3297   1.4788   1.6346   1.7645

          k = 0.0000 0.0000-0.4285     band energies (ev):

   -20.4719 -13.9108  -9.1466  -8.8255  -8.0771  -0.1182   0.0042   0.3723
     0.6584   0.7280   0.7920   1.1925   1.3424   1.5029   1.6536

          k = 0.0000 0.0000-0.2143     band energies (ev):

   -20.5271 -13.9624  -8.9798  -8.8992  -8.0089  -0.1993  -0.0665   0.3204
     0.5766   0.6501   0.7129   1.1100   1.2605   1.4234   1.5860

     highest occupied, lowest unoccupied level (ev):    -4.1871   -3.1998

     Writing output data file poly_pa.save
 
     init_run     :      0.14s CPU      0.18s WALL (       1 calls)
     electrons    :     98.02s CPU     98.32s WALL (       1 calls)

     Called by init_run:
     wfcinit      :      0.00s CPU      0.00s WALL (       1 calls)
     potinit      :      0.03s CPU      0.04s WALL (       1 calls)

     Called by electrons:
     c_bands      :     98.02s CPU     98.31s WALL (       1 calls)
     v_of_rho     :      0.01s CPU      0.01s WALL (       1 calls)

     Called by c_bands:
     init_us_2    :      0.00s CPU      0.01s WALL (      30 calls)
     cegterg      :     95.00s CPU     95.21s WALL (      92 calls)

     Called by *egterg:
     h_psi        :     83.00s CPU     83.26s WALL (    1715 calls)
     g_psi        :      0.89s CPU      0.95s WALL (    1593 calls)
     cdiaghg      :      1.84s CPU      1.96s WALL (    1623 calls)

     Called by h_psi:
     add_vuspsi   :      0.35s CPU      0.29s WALL (    1715 calls)

     General routines
     calbec       :      0.43s CPU      0.39s WALL (    1715 calls)
     fft          :      0.02s CPU      0.02s WALL (       3 calls)
     fftw         :     75.87s CPU     76.26s WALL (   25790 calls)
     davcio       :      0.03s CPU      0.06s WALL (      60 calls)
 
     Parallel routines
     fft_scatter  :     18.99s CPU     19.10s WALL (   25793 calls)
 
     PWSCF        :  1m39.29s CPU     1m39.83s WALL

 
   This run was terminated on:  10: 8:32  28Feb2013            

=------------------------------------------------------------------------------=
   JOB DONE.
=------------------------------------------------------------------------------=
