
     Program POST-PROC v.4.0.3  starts ...
     Today is 29Jan2009 at 15:40:50 

     Parallel version (MPI)

     Number of processors in use:       1
