
     Program PWSCF v.> 4.2      starts on  8Oct2010 at 18:48: 6 

     This program is part of the open-source Quantum ESPRESSO suite
     for quantum simulation of materials; please cite
         "P. Giannozzi et al., J. Phys.:Condens. Matter 21 395502 (2009);
          URL http://www.quantum-espresso.org", 
     in publications or presentations arising from this work. More details at
     http://www.quantum-espresso.org/wiki/index.php/Citing_Quantum-ESPRESSO

     Parallel version (MPI), running on     6 processors
     R & G space division:  proc/pool =    6

     Current dimensions of program PWSCF are:
     Max number of different atomic species (ntypx) = 10
     Max number of k-points (npk) =  40000
     Max angular momentum in pseudopotentials (lmaxx) =  3
     Waiting for input...

     XC functional enforced from input :
     Exchange-correlation      = PBE (1434)
     EXX-fraction              =        0.00
     !!! Any further DFT definition will be discarded
     !!! Please, verify this is what you really want !


     Subspace diagonalization in iterative solution of the eigenvalue problem:
     a serial algorithm will be used


     Planes per process (thick) : nr3 = 240 npp =   40 ncplane =  4096
     Planes per process (smooth): nr3s= 180 npps=   30 ncplanes=  2025
 
     Proc/  planes cols     G    planes cols    G      columns  G
     Pool       (dense grid)       (smooth grid)      (wavefct grid)
        1    40    525    80319   30    264    28420     66     3634
        2    40    525    80317   30    264    28408     67     3643
        3    40    525    80317   30    263    28397     67     3639
        4    40    525    80319   30    263    28381     67     3639
        5    40    524    80306   30    263    28405     67     3639
        6    40    525    80311   30    264    28420     67     3639
     tot    240   3149   481889  180   1581   170431    401    21833
 


     bravais-lattice index     =            8
     lattice parameter (a_0)   =      15.0000  a.u.
     unit-cell volume          =   12219.9075 (a.u.)^3
     number of atoms/cell      =           25
     number of atomic types    =            4
     number of electrons       =       141.00
     number of Kohn-Sham states=           85
     kinetic-energy cutoff     =      22.0000  Ry
     charge density cutoff     =     176.0000  Ry
     convergence threshold     =      1.0E-08
     mixing beta               =       0.3000
     number of iterations used =            8  plain     mixing
     Exchange-correlation      = PBE (1434)
     EXX-fraction              =        0.00

     celldm(1)=  15.000000  celldm(2)=   1.000000  celldm(3)=   3.620713
     celldm(4)=   0.000000  celldm(5)=   0.000000  celldm(6)=   0.000000

     crystal axes: (cart. coord. in units of a_0)
               a(1) = (   1.000000   0.000000   0.000000 )  
               a(2) = (   0.000000   1.000000   0.000000 )  
               a(3) = (   0.000000   0.000000   3.620713 )  

     reciprocal axes: (cart. coord. in units 2 pi/a_0)
               b(1) = (  1.000000  0.000000  0.000000 )  
               b(2) = (  0.000000  1.000000  0.000000 )  
               b(3) = (  0.000000  0.000000  0.276189 )  


     PseudoPot. # 1 for Au read from file Au.pw91-d-van.UPF
     MD5 check sum: dc02f59ef2ea6b62d9e9493d750aaae0
     Pseudo is Ultrasoft, Zval = 11.0
     Generated by new atomic code, or converted to UPF format
     Using radial grid of  939 points,  6 beta functions with: 
                l(1) =   0
                l(2) =   0
                l(3) =   1
                l(4) =   1
                l(5) =   2
                l(6) =   2
     Q(r) pseudized with  3 coefficients,  rinner =    1.600   1.800   1.600
                                                       1.600   1.800

     PseudoPot. # 2 for C  read from file C.pbe-van_bm.UPF
     MD5 check sum: 1a69bf6b8db32088f5b2163dbdb77a27
     Pseudo is Ultrasoft, Zval =  4.0
     Generated by new atomic code, or converted to UPF format
     Using radial grid of  721 points,  4 beta functions with: 
                l(1) =   0
                l(2) =   0
                l(3) =   1
                l(4) =   1
     Q(r) pseudized with  8 coefficients,  rinner =    0.800   0.800   0.800


     PseudoPot. # 3 for N  read from file N.pbe-van_bm.UPF
     MD5 check sum: 90d10febe142ad51ac9d5be1deb811c4
     Pseudo is Ultrasoft, Zval =  5.0
     Generated by new atomic code, or converted to UPF format
     Using radial grid of  729 points,  4 beta functions with: 
                l(1) =   0
                l(2) =   0
                l(3) =   1
                l(4) =   1
     Q(r) pseudized with  8 coefficients,  rinner =    0.800   0.800   0.800


     PseudoPot. # 4 for H  read from file H.pbe-van_bm.UPF
     MD5 check sum: b5ee9d7bfd3a09ee7748110bda690ff7
     Pseudo is Ultrasoft, Zval =  1.0
     Generated by new atomic code, or converted to UPF format
     Using radial grid of  615 points,  1 beta functions with: 
                l(1) =   0
     Q(r) pseudized with  8 coefficients,  rinner =    0.800

     atomic species   valence    mass     pseudopotential
        Au            11.00   196.96650     Au( 1.00)
        C              4.00    12.01000     C ( 1.00)
        N              5.00    14.01000     N ( 1.00)
        H              1.00     1.00800     H ( 1.00)

     No symmetry found

   Cartesian axes

     site n.     atom                  positions (a_0 units)
         1           Au  tau(  1) = (   0.1570698   0.1040872  -1.4972767  )
         2           Au  tau(  2) = (   0.1570698   0.1040872  -1.1823223  )
         3           Au  tau(  3) = (   0.1570698   0.1040872  -0.8673680  )
         4           Au  tau(  4) = (   0.1570698   0.1040872  -0.5524136  )
         5           H   tau(  5) = (   0.3750662   0.2710840  -0.3488349  )
         6           H   tau(  6) = (   0.1898805   0.3652598  -0.3382009  )
         7           N   tau(  7) = (   0.2529507   0.2571206  -0.3163008  )
         8           C   tau(  8) = (   0.2242489   0.1850647  -0.1569272  )
         9           H   tau(  9) = (   0.4588414   0.0493594  -0.1506940  )
        10           H   tau( 10) = (  -0.0199890   0.2989157  -0.1260552  )
        11           C   tau( 11) = (   0.0727985   0.2140259  -0.0720060  )
        12           C   tau( 12) = (   0.3412209   0.0747916  -0.0855031  )
        13           C   tau( 13) = (   0.3079592  -0.0036735   0.0672118  )
        14           C   tau( 14) = (   0.0396808   0.1358858   0.0806316  )
        15           C   tau( 15) = (   0.1569889   0.0260220   0.1525051  )
        16           H   tau( 16) = (   0.4001979  -0.0896119   0.1205066  )
        17           H   tau( 17) = (  -0.0780865   0.1611724   0.1456550  )
        18           N   tau( 18) = (   0.1276316  -0.0445301   0.3126250  )
        19           H   tau( 19) = (   0.0062002  -0.0721377   0.3383633  )
        20           H   tau( 20) = (   0.2014536  -0.1438686   0.3416505  )
        21           Au  tau( 21) = (   0.1785466   0.1286613   0.5486634  )
        22           Au  tau( 22) = (   0.1785466   0.1286613   0.8636178  )
        23           Au  tau( 23) = (   0.1785466   0.1286613   1.1785722  )
        24           Au  tau( 24) = (   0.1785466   0.1286613   1.4935265  )
        25           Au  tau( 25) = (   0.1785466   0.1286613   1.8084809  )

     number of k points=     2  gaussian smearing, width (Ry)=  0.0100
                       cart. coord. in units 2pi/a_0
        k(    1) = (   0.0000000   0.0000000   0.0345236), wk =   1.0000000
        k(    2) = (   0.0000000   0.0000000   0.1035708), wk =   1.0000000

     G cutoff = 1003.0797  ( 481889 G-vectors)     FFT grid: ( 64, 64,240)
     G cutoff =  501.5399  ( 170431 G-vectors)  smooth grid: ( 45, 45,180)

     Largest allocated arrays     est. size (Mb)     dimensions
        Kohn-Sham Wavefunctions         4.61 Mb     (   3557,  85)
        NL pseudopotentials            12.70 Mb     (   3557, 234)
        Each V/rho on FFT grid          2.50 Mb     ( 163840)
        Each G-vector array             0.61 Mb     (  80319)
        G-vector shells                 0.16 Mb     (  21568)
     Largest temporary arrays     est. size (Mb)     dimensions
        Auxiliary wavefunctions        18.45 Mb     (   3557, 340)
        Each subspace H/S matrix        1.76 Mb     (    340, 340)
        Each <psi_i|beta_j> matrix      0.30 Mb     (    234,  85)
        Arrays for rho mixing          20.00 Mb     ( 163840,   8)

     Initial potential from superposition of free atoms
     Check: negative starting charge=   -0.000288

     starting charge  140.89025, renormalised to  141.00000

     negative rho (up, down):  0.288E-03 0.000E+00
     Starting wfc are  121 atomic wfcs

     total cpu time spent up to now is     12.99 secs

     per-process dynamical memory:   120.6 Mb

     Self-consistent Calculation

     iteration #  1     ecut=    22.00 Ry     beta=0.30
     Davidson diagonalization with overlap
     ethr =  1.00E-02,  avg # of iterations =  2.0

     negative rho (up, down):  0.320E-03 0.000E+00

     total cpu time spent up to now is     30.18 secs

     total energy              =    -722.64526566 Ry
     Harris-Foulkes estimate   =    -723.54044893 Ry
     estimated scf accuracy    <       2.37998642 Ry

     iteration #  2     ecut=    22.00 Ry     beta=0.30
     Davidson diagonalization with overlap
     ethr =  1.69E-03,  avg # of iterations =  6.0

     negative rho (up, down):  0.471E-03 0.000E+00

     total cpu time spent up to now is     48.05 secs

     total energy              =    -722.41623369 Ry
     Harris-Foulkes estimate   =    -723.07997439 Ry
     estimated scf accuracy    <       2.98640832 Ry

     iteration #  3     ecut=    22.00 Ry     beta=0.30
     Davidson diagonalization with overlap
     ethr =  1.69E-03,  avg # of iterations =  4.5

     negative rho (up, down):  0.785E-03 0.000E+00

     total cpu time spent up to now is     64.75 secs

     total energy              =    -722.72590402 Ry
     Harris-Foulkes estimate   =    -722.99106050 Ry
     estimated scf accuracy    <       1.43691852 Ry

     iteration #  4     ecut=    22.00 Ry     beta=0.30
     Davidson diagonalization with overlap
     ethr =  1.02E-03,  avg # of iterations =  3.5

     negative rho (up, down):  0.113E-02 0.000E+00

     total cpu time spent up to now is     80.70 secs

     total energy              =    -722.74198139 Ry
     Harris-Foulkes estimate   =    -722.80875137 Ry
     estimated scf accuracy    <       0.35199140 Ry

     iteration #  5     ecut=    22.00 Ry     beta=0.30
     Davidson diagonalization with overlap
     ethr =  2.50E-04,  avg # of iterations =  6.5

     negative rho (up, down):  0.156E-02 0.000E+00

     total cpu time spent up to now is     97.91 secs

     total energy              =    -722.72597577 Ry
     Harris-Foulkes estimate   =    -722.81835663 Ry
     estimated scf accuracy    <       0.82984129 Ry

     iteration #  6     ecut=    22.00 Ry     beta=0.30
     Davidson diagonalization with overlap
     ethr =  2.50E-04,  avg # of iterations =  3.5

     negative rho (up, down):  0.231E-02 0.000E+00

     total cpu time spent up to now is    113.98 secs

     total energy              =    -722.76119117 Ry
     Harris-Foulkes estimate   =    -722.78076683 Ry
     estimated scf accuracy    <       0.09979528 Ry

     iteration #  7     ecut=    22.00 Ry     beta=0.30
     Davidson diagonalization with overlap
     ethr =  7.08E-05,  avg # of iterations =  5.0

     negative rho (up, down):  0.348E-02 0.000E+00

     total cpu time spent up to now is    130.71 secs

     total energy              =    -722.76311475 Ry
     Harris-Foulkes estimate   =    -722.76849657 Ry
     estimated scf accuracy    <       0.02414770 Ry

     iteration #  8     ecut=    22.00 Ry     beta=0.30
     Davidson diagonalization with overlap
     ethr =  1.71E-05,  avg # of iterations =  4.0

     negative rho (up, down):  0.416E-02 0.000E+00

     total cpu time spent up to now is    147.40 secs

     total energy              =    -722.76512628 Ry
     Harris-Foulkes estimate   =    -722.76628376 Ry
     estimated scf accuracy    <       0.00743669 Ry

     iteration #  9     ecut=    22.00 Ry     beta=0.30
     Davidson diagonalization with overlap
     ethr =  5.27E-06,  avg # of iterations =  3.5

     negative rho (up, down):  0.453E-02 0.000E+00

     total cpu time spent up to now is    163.71 secs

     total energy              =    -722.76564852 Ry
     Harris-Foulkes estimate   =    -722.76578235 Ry
     estimated scf accuracy    <       0.00068029 Ry

     iteration # 10     ecut=    22.00 Ry     beta=0.30
     Davidson diagonalization with overlap
     ethr =  4.82E-07,  avg # of iterations =  4.5

     negative rho (up, down):  0.480E-02 0.000E+00

     total cpu time spent up to now is    181.67 secs

     total energy              =    -722.76573232 Ry
     Harris-Foulkes estimate   =    -722.76582120 Ry
     estimated scf accuracy    <       0.00062858 Ry

     iteration # 11     ecut=    22.00 Ry     beta=0.30
     Davidson diagonalization with overlap
     ethr =  4.46E-07,  avg # of iterations =  1.0

     negative rho (up, down):  0.501E-02 0.000E+00

     total cpu time spent up to now is    197.30 secs

     total energy              =    -722.76577181 Ry
     Harris-Foulkes estimate   =    -722.76577993 Ry
     estimated scf accuracy    <       0.00007166 Ry

     iteration # 12     ecut=    22.00 Ry     beta=0.30
     Davidson diagonalization with overlap
     ethr =  5.08E-08,  avg # of iterations =  2.0

     negative rho (up, down):  0.513E-02 0.000E+00

     total cpu time spent up to now is    213.29 secs

     total energy              =    -722.76577847 Ry
     Harris-Foulkes estimate   =    -722.76577862 Ry
     estimated scf accuracy    <       0.00001444 Ry

     iteration # 13     ecut=    22.00 Ry     beta=0.30
     Davidson diagonalization with overlap
     ethr =  1.02E-08,  avg # of iterations =  2.0

     negative rho (up, down):  0.519E-02 0.000E+00

     total cpu time spent up to now is    229.35 secs

     total energy              =    -722.76577995 Ry
     Harris-Foulkes estimate   =    -722.76578010 Ry
     estimated scf accuracy    <       0.00000353 Ry

     iteration # 14     ecut=    22.00 Ry     beta=0.30
     Davidson diagonalization with overlap
     ethr =  2.50E-09,  avg # of iterations =  2.5

     negative rho (up, down):  0.521E-02 0.000E+00

     total cpu time spent up to now is    246.07 secs

     total energy              =    -722.76578069 Ry
     Harris-Foulkes estimate   =    -722.76578062 Ry
     estimated scf accuracy    <       0.00000080 Ry

     iteration # 15     ecut=    22.00 Ry     beta=0.30
     Davidson diagonalization with overlap
     ethr =  5.69E-10,  avg # of iterations =  2.0

     negative rho (up, down):  0.523E-02 0.000E+00

     total cpu time spent up to now is    262.28 secs

     total energy              =    -722.76578089 Ry
     Harris-Foulkes estimate   =    -722.76578082 Ry
     estimated scf accuracy    <       0.00000041 Ry

     iteration # 16     ecut=    22.00 Ry     beta=0.30
     Davidson diagonalization with overlap
     ethr =  2.87E-10,  avg # of iterations =  1.0

     negative rho (up, down):  0.524E-02 0.000E+00

     total cpu time spent up to now is    277.84 secs

     total energy              =    -722.76578096 Ry
     Harris-Foulkes estimate   =    -722.76578093 Ry
     estimated scf accuracy    <       0.00000021 Ry

     iteration # 17     ecut=    22.00 Ry     beta=0.30
     Davidson diagonalization with overlap
     ethr =  1.52E-10,  avg # of iterations =  1.0

     negative rho (up, down):  0.525E-02 0.000E+00

     total cpu time spent up to now is    293.41 secs

     total energy              =    -722.76578100 Ry
     Harris-Foulkes estimate   =    -722.76578098 Ry
     estimated scf accuracy    <       0.00000002 Ry

     iteration # 18     ecut=    22.00 Ry     beta=0.30
     Davidson diagonalization with overlap
     ethr =  1.63E-11,  avg # of iterations =  3.0

     negative rho (up, down):  0.526E-02 0.000E+00

     total cpu time spent up to now is    309.94 secs

     End of self-consistent calculation

          k = 0.0000 0.0000 0.0345 ( 21293 PWs)   bands (ev):

   -23.3886 -23.2267 -20.5888 -18.3692 -17.7211 -15.2916 -14.8260 -13.1660
   -13.0156 -12.4261 -12.0673 -10.4708 -10.2421  -9.9927  -9.8856  -9.6937
    -9.0893  -8.6177  -8.2915  -8.0199  -7.7394  -7.4650  -6.6418  -6.4398
    -6.4332  -6.3102  -6.2508  -6.1319  -6.0953  -6.0371  -5.7720  -5.7360
    -5.6023  -5.4375  -5.2684  -5.1709  -5.1598  -5.1434  -5.1318  -4.9203
    -4.8477  -4.8119  -4.8024  -4.7553  -4.7351  -4.7338  -4.7032  -4.5790
    -4.5747  -4.5316  -4.4944  -4.4933  -4.3879  -4.3546  -4.3167  -4.3134
    -4.2377  -4.2338  -4.1883  -4.1749  -4.1589  -4.1173  -4.0409  -3.9505
    -3.6764  -3.6656  -3.6229  -3.4904  -3.4271  -3.3099  -3.2247  -2.8347
    -1.6902  -1.0272  -0.6251  -0.4513  -0.2647   0.3758   0.6426   0.6824
     0.7502   0.7857   0.8986   1.1955   1.2103

          k = 0.0000 0.0000 0.1036 ( 21277 PWs)   bands (ev):

   -23.3886 -23.2267 -20.5888 -18.3690 -17.7210 -15.2917 -14.8254 -13.1660
   -13.0151 -12.4256 -12.0666 -10.4704 -10.2418  -9.9924  -9.8856  -9.6936
    -9.0877  -8.6420  -8.2109  -8.0205  -7.8819  -7.3460  -6.6776  -6.4371
    -6.4138  -6.3243  -6.3089  -6.1166  -6.0599  -6.0130  -5.8363  -5.7387
    -5.6261  -5.3135  -5.2631  -5.1809  -5.1604  -5.1435  -5.1021  -4.9762
    -4.9006  -4.8118  -4.8060  -4.7557  -4.7351  -4.7337  -4.6545  -4.5809
    -4.5746  -4.5623  -4.4954  -4.4933  -4.3853  -4.3304  -4.3167  -4.3043
    -4.2379  -4.2343  -4.1886  -4.1762  -4.1596  -4.1367  -4.0480  -3.9436
    -3.6757  -3.6643  -3.5857  -3.5209  -3.4305  -3.3106  -3.2763  -2.7502
    -1.7408  -1.0288  -0.7153  -0.3512  -0.1192   0.2212   0.6463   0.6901
     0.7082   0.7369   0.9422   1.1576   1.2507

     the Fermi energy is    -3.2094 ev

!    total energy              =    -722.76578102 Ry
     Harris-Foulkes estimate   =    -722.76578100 Ry
     estimated scf accuracy    <          3.6E-09 Ry

     The total energy is the sum of the following terms:

     one-electron contribution =   -1215.79876274 Ry
     hartree contribution      =     654.26668650 Ry
     xc contribution           =    -129.65529654 Ry
     ewald contribution        =     -31.56967252 Ry
     smearing contrib. (-TS)   =      -0.00873572 Ry

     convergence has been achieved in  18 iterations

     Writing output data file au_bda.save
 
     init_run     :     11.95s CPU     12.20s WALL (       1 calls)
     electrons    :    294.37s CPU    296.97s WALL (       1 calls)

     Called by init_run:
     wfcinit      :      3.67s CPU      3.81s WALL (       1 calls)
     potinit      :      1.89s CPU      1.91s WALL (       1 calls)

     Called by electrons:
     c_bands      :    117.28s CPU    118.78s WALL (      18 calls)
     sum_band     :     83.21s CPU     83.75s WALL (      18 calls)
     v_of_rho     :      5.64s CPU      5.68s WALL (      19 calls)
     newd         :     89.48s CPU     89.74s WALL (      19 calls)
     mix_rho      :      1.34s CPU      1.33s WALL (      18 calls)

     Called by c_bands:
     init_us_2    :      0.76s CPU      0.76s WALL (      74 calls)
     cegterg      :    113.50s CPU    114.80s WALL (      36 calls)

     Called by *egterg:
     h_psi        :     83.09s CPU     83.51s WALL (     153 calls)
     s_psi        :      8.37s CPU      8.40s WALL (     153 calls)
     g_psi        :      0.50s CPU      0.51s WALL (     115 calls)
     cdiaghg      :      4.48s CPU      4.67s WALL (     151 calls)

     Called by h_psi:
     add_vuspsi   :      8.91s CPU      8.94s WALL (     153 calls)

     General routines
     calbec       :     13.46s CPU     13.53s WALL (     189 calls)
     fft          :     10.06s CPU     10.11s WALL (     299 calls)
     ffts         :      0.24s CPU      0.25s WALL (      37 calls)
     fftw         :     68.59s CPU     68.88s WALL (   16890 calls)
     interpolate  :      1.11s CPU      1.12s WALL (      37 calls)
     davcio       :      0.00s CPU      0.35s WALL (     110 calls)
 
     Parallel routines
     fft_scatter  :     21.67s CPU     21.66s WALL (   17226 calls)
 
     PWSCF        :  5m 6.85s CPU     5m10.24s WALL

 
   This run was terminated on:  18:53:16   8Oct2010            

=------------------------------------------------------------------------------=
   JOB DONE.
=------------------------------------------------------------------------------=
