
     Program PWSCF v.> 4.2      starts on  8Oct2010 at 19: 6:18 

     This program is part of the open-source Quantum ESPRESSO suite
     for quantum simulation of materials; please cite
         "P. Giannozzi et al., J. Phys.:Condens. Matter 21 395502 (2009);
          URL http://www.quantum-espresso.org", 
     in publications or presentations arising from this work. More details at
     http://www.quantum-espresso.org/wiki/index.php/Citing_Quantum-ESPRESSO

     Parallel version (MPI), running on     6 processors
     R & G space division:  proc/pool =    6

     Current dimensions of program PWSCF are:
     Max number of different atomic species (ntypx) = 10
     Max number of k-points (npk) =  40000
     Max angular momentum in pseudopotentials (lmaxx) =  3
     Waiting for input...

     XC functional enforced from input :
     Exchange-correlation      = PBE (1434)
     EXX-fraction              =        0.00
     !!! Any further DFT definition will be discarded
     !!! Please, verify this is what you really want !


     Subspace diagonalization in iterative solution of the eigenvalue problem:
     a serial algorithm will be used

     Found symmetry operation: I + (  0.0000  0.0000  0.2500)
     This is a supercell, fractional translation are disabled

     Planes per process (thick) : nr3 =  80 npp =   14 ncplane =  4096
     Planes per process (smooth): nr3s=  60 npps=   10 ncplanes=  2025
 
     Proc/  planes cols     G    planes cols    G      columns  G
     Pool       (dense grid)       (smooth grid)      (wavefct grid)
        1    14    525    27933   10    263     9895     70     1364
        2    14    525    27933   10    263     9897     70     1364
        3    13    524    27928   10    263     9889     70     1364
        4    13    525    27931   10    264     9900     70     1364
        5    13    525    27931   10    264     9898     71     1367
        6    13    525    27931   10    264     9902     70     1362
     tot     80   3149   167587   60   1581    59381    421     8185
 


     bravais-lattice index     =            8
     lattice parameter (a_0)   =      15.0000  a.u.
     unit-cell volume          =    4251.8855 (a.u.)^3
     number of atoms/cell      =            4
     number of atomic types    =            1
     number of electrons       =        44.00
     number of Kohn-Sham states=           26
     kinetic-energy cutoff     =      22.0000  Ry
     charge density cutoff     =     176.0000  Ry
     convergence threshold     =      1.0E-08
     mixing beta               =       0.3000
     number of iterations used =            8  plain     mixing
     Exchange-correlation      = PBE (1434)
     EXX-fraction              =        0.00

     celldm(1)=  15.000000  celldm(2)=   1.000000  celldm(3)=   1.259818
     celldm(4)=   0.000000  celldm(5)=   0.000000  celldm(6)=   0.000000

     crystal axes: (cart. coord. in units of a_0)
               a(1) = (   1.000000   0.000000   0.000000 )  
               a(2) = (   0.000000   1.000000   0.000000 )  
               a(3) = (   0.000000   0.000000   1.259818 )  

     reciprocal axes: (cart. coord. in units 2 pi/a_0)
               b(1) = (  1.000000  0.000000  0.000000 )  
               b(2) = (  0.000000  1.000000  0.000000 )  
               b(3) = (  0.000000  0.000000  0.793766 )  


     PseudoPot. # 1 for Au read from file Au.pw91-d-van.UPF
     MD5 check sum: dc02f59ef2ea6b62d9e9493d750aaae0
     Pseudo is Ultrasoft, Zval = 11.0
     Generated by new atomic code, or converted to UPF format
     Using radial grid of  939 points,  6 beta functions with: 
                l(1) =   0
                l(2) =   0
                l(3) =   1
                l(4) =   1
                l(5) =   2
                l(6) =   2
     Q(r) pseudized with  3 coefficients,  rinner =    1.600   1.800   1.600
                                                       1.600   1.800

     atomic species   valence    mass     pseudopotential
        Au            11.00   196.96650     Au( 1.00)

     16 Sym.Ops. (with inversion)


   Cartesian axes

     site n.     atom                  positions (a_0 units)
         1           Au  tau(  1) = (   0.0000000   0.0000000  -0.6299087  )
         2           Au  tau(  2) = (   0.0000000   0.0000000  -0.3149544  )
         3           Au  tau(  3) = (   0.0000000   0.0000000   0.0000000  )
         4           Au  tau(  4) = (   0.0000000   0.0000000   0.3149544  )

     number of k points=     4  gaussian smearing, width (Ry)=  0.0100
                       cart. coord. in units 2pi/a_0
        k(    1) = (   0.0000000   0.0000000   0.0496103), wk =   0.5000000
        k(    2) = (   0.0000000   0.0000000   0.1488310), wk =   0.5000000
        k(    3) = (   0.0000000   0.0000000   0.2480517), wk =   0.5000000
        k(    4) = (   0.0000000   0.0000000   0.3472724), wk =   0.5000000

     G cutoff = 1003.0797  ( 167587 G-vectors)     FFT grid: ( 64, 64, 80)
     G cutoff =  501.5399  (  59381 G-vectors)  smooth grid: ( 45, 45, 60)

     Largest allocated arrays     est. size (Mb)     dimensions
        Kohn-Sham Wavefunctions         0.49 Mb     (   1238,  26)
        NL pseudopotentials             1.36 Mb     (   1238,  72)
        Each V/rho on FFT grid          0.88 Mb     (  57344)
        Each G-vector array             0.21 Mb     (  27933)
        G-vector shells                 0.06 Mb     (   7680)
     Largest temporary arrays     est. size (Mb)     dimensions
        Auxiliary wavefunctions         1.96 Mb     (   1238, 104)
        Each subspace H/S matrix        0.17 Mb     (    104, 104)
        Each <psi_i|beta_j> matrix      0.03 Mb     (     72,  26)
        Arrays for rho mixing           7.00 Mb     (  57344,   8)

     Initial potential from superposition of free atoms
     Check: negative starting charge=   -0.000123

     starting charge   43.95137, renormalised to   44.00000

     negative rho (up, down):  0.123E-03 0.000E+00
     Starting wfc are   36 atomic wfcs

     total cpu time spent up to now is      2.97 secs

     per-process dynamical memory:    53.8 Mb

     Self-consistent Calculation

     iteration #  1     ecut=    22.00 Ry     beta=0.30
     Davidson diagonalization with overlap
     ethr =  1.00E-02,  avg # of iterations =  2.0

     Threshold (ethr) on eigenvalues was too large:
     Diagonalizing with lowered threshold

     Davidson diagonalization with overlap
     ethr =  1.95E-04,  avg # of iterations =  2.0

     negative rho (up, down):  0.147E-03 0.000E+00

     total cpu time spent up to now is      6.45 secs

     total energy              =    -269.03685611 Ry
     Harris-Foulkes estimate   =    -269.06367318 Ry
     estimated scf accuracy    <       0.08826195 Ry

     iteration #  2     ecut=    22.00 Ry     beta=0.30
     Davidson diagonalization with overlap
     ethr =  2.01E-04,  avg # of iterations =  1.0

     negative rho (up, down):  0.213E-03 0.000E+00

     total cpu time spent up to now is      8.35 secs

     total energy              =    -269.04024258 Ry
     Harris-Foulkes estimate   =    -269.04523028 Ry
     estimated scf accuracy    <       0.02805104 Ry

     iteration #  3     ecut=    22.00 Ry     beta=0.30
     Davidson diagonalization with overlap
     ethr =  6.38E-05,  avg # of iterations =  1.0

     negative rho (up, down):  0.102E-02 0.000E+00

     total cpu time spent up to now is     10.25 secs

     total energy              =    -269.03936667 Ry
     Harris-Foulkes estimate   =    -269.04153007 Ry
     estimated scf accuracy    <       0.00968831 Ry

     iteration #  4     ecut=    22.00 Ry     beta=0.30
     Davidson diagonalization with overlap
     ethr =  2.20E-05,  avg # of iterations =  2.0

     negative rho (up, down):  0.137E-02 0.000E+00

     total cpu time spent up to now is     12.29 secs

     total energy              =    -269.03998666 Ry
     Harris-Foulkes estimate   =    -269.04013670 Ry
     estimated scf accuracy    <       0.00056803 Ry

     iteration #  5     ecut=    22.00 Ry     beta=0.30
     Davidson diagonalization with overlap
     ethr =  1.29E-06,  avg # of iterations =  3.5

     negative rho (up, down):  0.176E-02 0.000E+00

     total cpu time spent up to now is     14.56 secs

     total energy              =    -269.04017024 Ry
     Harris-Foulkes estimate   =    -269.04020040 Ry
     estimated scf accuracy    <       0.00008841 Ry

     iteration #  6     ecut=    22.00 Ry     beta=0.30
     Davidson diagonalization with overlap
     ethr =  2.01E-07,  avg # of iterations =  3.0

     negative rho (up, down):  0.168E-02 0.000E+00

     total cpu time spent up to now is     16.82 secs

     total energy              =    -269.04019483 Ry
     Harris-Foulkes estimate   =    -269.04022281 Ry
     estimated scf accuracy    <       0.00006772 Ry

     iteration #  7     ecut=    22.00 Ry     beta=0.30
     Davidson diagonalization with overlap
     ethr =  1.54E-07,  avg # of iterations =  2.0

     negative rho (up, down):  0.166E-02 0.000E+00

     total cpu time spent up to now is     19.07 secs

     total energy              =    -269.04021219 Ry
     Harris-Foulkes estimate   =    -269.04021165 Ry
     estimated scf accuracy    <       0.00000317 Ry

     iteration #  8     ecut=    22.00 Ry     beta=0.30
     Davidson diagonalization with overlap
     ethr =  7.20E-09,  avg # of iterations =  2.2

     negative rho (up, down):  0.168E-02 0.000E+00

     total cpu time spent up to now is     21.29 secs

     total energy              =    -269.04021385 Ry
     Harris-Foulkes estimate   =    -269.04021301 Ry
     estimated scf accuracy    <       0.00000008 Ry

     iteration #  9     ecut=    22.00 Ry     beta=0.30
     Davidson diagonalization with overlap
     ethr =  1.81E-10,  avg # of iterations =  3.8

     negative rho (up, down):  0.167E-02 0.000E+00

     total cpu time spent up to now is     23.55 secs

     End of self-consistent calculation

          k = 0.0000 0.0000 0.0496 (  7377 PWs)   bands (ev):

    -9.8047  -7.5027  -7.5027  -7.1283  -6.4796  -6.3219  -6.3219  -6.0198
    -6.0198  -5.8429  -5.8408  -5.5497  -5.5483  -5.5332  -5.4837  -5.4822
    -5.1703  -5.1688  -4.7147  -4.4423  -4.3804  -4.1940  -4.1940  -0.0874
    -0.0874   0.5511

          k = 0.0000 0.0000 0.1488 (  7388 PWs)   bands (ev):

    -9.7018  -7.7490  -7.4575  -7.4575  -6.5993  -6.5993  -5.8579  -5.8308
    -5.8287  -5.7012  -5.7012  -5.6138  -5.6123  -5.5044  -5.4178  -5.4165
    -5.1843  -5.1826  -4.9288  -4.4338  -4.2998  -4.2998  -4.0695  -0.1481
     0.0147   0.0147

          k = 0.0000 0.0000 0.2481 (  7416 PWs)   bands (ev):

    -9.4970  -8.3105  -7.3678  -7.3678  -6.8473  -6.8473  -5.8068  -5.8048
    -5.6738  -5.6721  -5.4470  -5.3752  -5.3752  -5.3553  -5.3540  -5.3406
    -5.2110  -5.2095  -5.1036  -4.5419  -4.4945  -4.4945  -3.5360  -1.0517
     0.2052   0.2052

          k = 0.0000 0.0000 0.3473 (  7420 PWs)   bands (ev):

    -9.1934  -8.7956  -7.2344  -7.2344  -7.0601  -7.0601  -5.7718  -5.7701
    -5.7270  -5.7253  -5.3611  -5.2985  -5.2972  -5.2494  -5.2481  -5.2469
    -5.0545  -5.0545  -4.9674  -4.7544  -4.7544  -4.7132  -2.8197  -1.9689
     0.4650   0.4650

     the Fermi energy is    -4.1800 ev

!    total energy              =    -269.04021509 Ry
     Harris-Foulkes estimate   =    -269.04021388 Ry
     estimated scf accuracy    <          4.6E-09 Ry

     The total energy is the sum of the following terms:

     one-electron contribution =    -378.95284353 Ry
     hartree contribution      =     206.75128441 Ry
     xc contribution           =     -41.27827596 Ry
     ewald contribution        =     -55.55530532 Ry
     smearing contrib. (-TS)   =      -0.00507469 Ry

     convergence has been achieved in   9 iterations

     Writing output data file au_bulk.save
 
     init_run     :      2.88s CPU      2.90s WALL (       1 calls)
     electrons    :     20.28s CPU     20.58s WALL (       1 calls)

     Called by init_run:
     wfcinit      :      0.45s CPU      0.45s WALL (       1 calls)
     potinit      :      0.31s CPU      0.31s WALL (       1 calls)

     Called by electrons:
     c_bands      :      9.36s CPU      9.42s WALL (      10 calls)
     sum_band     :      5.52s CPU      5.57s WALL (      10 calls)
     v_of_rho     :      0.84s CPU      0.86s WALL (      10 calls)
     newd         :      4.50s CPU      4.54s WALL (      10 calls)
     mix_rho      :      0.14s CPU      0.15s WALL (      10 calls)

     Called by c_bands:
     init_us_2    :      0.07s CPU      0.08s WALL (      84 calls)
     cegterg      :      8.90s CPU      8.94s WALL (      40 calls)

     Called by *egterg:
     h_psi        :      7.38s CPU      7.36s WALL (     134 calls)
     s_psi        :      0.31s CPU      0.34s WALL (     134 calls)
     g_psi        :      0.08s CPU      0.07s WALL (      90 calls)
     cdiaghg      :      0.24s CPU      0.23s WALL (     126 calls)

     Called by h_psi:
     add_vuspsi   :      0.38s CPU      0.35s WALL (     134 calls)

     General routines
     calbec       :      0.66s CPU      0.67s WALL (     174 calls)
     fft          :      1.34s CPU      1.35s WALL (     159 calls)
     ffts         :      0.03s CPU      0.03s WALL (      20 calls)
     fftw         :      6.95s CPU      6.99s WALL (    6510 calls)
     interpolate  :      0.16s CPU      0.15s WALL (      20 calls)
     davcio       :      0.00s CPU      0.04s WALL (     124 calls)
 
     Parallel routines
     fft_scatter  :      3.09s CPU      3.17s WALL (    6689 calls)
 
     PWSCF        :    23.33s CPU        23.73s WALL

 
   This run was terminated on:  19: 6:42   8Oct2010            

=------------------------------------------------------------------------------=
   JOB DONE.
=------------------------------------------------------------------------------=
