
     Program POST-PROC v.3.0    starts ...
     Today is 11May2006 at 23:24: 7 

     Reading file graphene.save ...      only dimensions
     read complete

     Reading file graphene.save ...      all except wavefuctions
     read complete

     nbndx  =    10  nbnd   =    10  natomwfc =     8  npwx   =    2878
     nelec  =   8.00  nkb   =     2  ngl    =    1057
