
     Program POST-PROC v.3.1    starts ...
     Today is 11Apr2006 at 17:38:13 

     nbndx  =    40  nbnd   =    40  natomwfc =    30  npwx   =   12053
     nelec  =  30.00  nkb   =    54  ngl    =    1691

     negative rho (up, down):  0.556E-02 0.000E+00
