
     Program POST-PROC v.3.2cvs starts ...
     Today is 14Oct2006 at  0:10:15 

     nbndx  =    10  nbnd   =    10  natomwfc =     8  npwx   =    2878
     nelec  =   8.00  nkb   =     2  ngl    =    1057
