
     Program POST-PROC v.4.0.3  starts ...
     Today is  5Jan2009 at 10:49: 7 

     Parallel version (MPI)

     Number of processors in use:       4
     R & G space division:  proc/pool =    4

     Planes per process (thick) : nr3 = 80 npp =  20 ncplane = 6400
 
     Proc/  planes cols     G    planes cols    G      columns  G
     Pool       (dense grid)       (smooth grid)      (wavefct grid)
       1     20   1116    55934   20   1116    55934    277     7005
       2     20   1118    55934   20   1118    55934    278     7006
       3     20   1118    55934   20   1118    55934    277     7003
       4     20   1117    55933   20   1117    55933    277     7003
     tot     80   4469   223735   80   4469   223735   1109    28017
 
