
     Program POST-PROC v.4.0.3  starts ...
     Today is  3Jan2009 at 16:41:47 

     Parallel version (MPI)

     Number of processors in use:       4
     R & G space division:  proc/pool =    4

     Planes per process (thick) : nr3 =150 npp =  38 ncplane =  400
 
     Proc/  planes cols     G    planes cols    G      columns  G
     Pool       (dense grid)       (smooth grid)      (wavefct grid)
       1     38     59     5691   38     59     5691     22     1308
       2     38     59     5689   38     59     5689     21     1279
       3     37     58     5686   37     58     5686     21     1285
       4     37     59     5695   37     59     5695     21     1281
     tot    150    235    22761  150    235    22761     85     5153
 
