
     Program POST-PROC v.3.1    starts ...
     Today is 12Apr2006 at  2:35:50 

     nbndx  =    60  nbnd   =    60  natomwfc =    48  npwx   =    3448
     nelec  =  48.00  nkb   =    48  ngl    =    1476
