
     Program POST-PROC v.3.2    starts ...
     Today is  8Jun2007 at 17:29:35 

     nbndx  =    20  nbnd   =    20  natomwfc =    16  npwx   =     512
     nelec  =  16.00  nkb   =    32  ngl    =     625
