
     Program PWSCF v.5.0.1 (svn rev. 9214M) starts on 14Aug2012 at 22: 8:59 

     This program is part of the open-source Quantum ESPRESSO suite
     for quantum simulation of materials; please cite
         "P. Giannozzi et al., J. Phys.:Condens. Matter 21 395502 (2009);
          URL http://www.quantum-espresso.org", 
     in publications or presentations arising from this work. More details at
     http://www.quantum-espresso.org/quote.php

     Parallel version (MPI), running on     6 processors
     R & G space division:  proc/pool =    6

     Current dimensions of program PWSCF are:
     Max number of different atomic species (ntypx) = 10
     Max number of k-points (npk) =  40000
     Max angular momentum in pseudopotentials (lmaxx) =  3
     Reading input from /home/ferretti/want/tests/test12/scf.in

     Subspace diagonalization in iterative solution of the eigenvalue problem:
     a serial algorithm will be used

 
     Parallelization info
     --------------------
     sticks:   dense  smooth     PW     G-vecs:    dense   smooth      PW
     Min         120     120     36                 4560     4560     736
     Max         121     121     37                 4563     4563     740
     Sum         725     725    217                27369    27369    4431
 


     bravais-lattice index     =            8
     lattice parameter (alat)  =       7.2549  a.u.
     unit-cell volume          =    1620.0172 (a.u.)^3
     number of atoms/cell      =           12
     number of atomic types    =            1
     number of electrons       =        48.00
     number of Kohn-Sham states=           24
     kinetic-energy cutoff     =      25.0000  Ry
     charge density cutoff     =     100.0000  Ry
     convergence threshold     =      1.0E-08
     mixing beta               =       0.7000
     number of iterations used =            8  plain     mixing
     Exchange-correlation      =  SLA  PZ   NOGX NOGC ( 1 1 0 0 0)
     EXX-fraction              =        0.00

     celldm(1)=   7.254900  celldm(2)=   1.732000  celldm(3)=   2.449500
     celldm(4)=   0.000000  celldm(5)=   0.000000  celldm(6)=   0.000000

     crystal axes: (cart. coord. in units of alat)
               a(1) = (   1.000000   0.000000   0.000000 )  
               a(2) = (   0.000000   1.732000   0.000000 )  
               a(3) = (   0.000000   0.000000   2.449500 )  

     reciprocal axes: (cart. coord. in units 2 pi/alat)
               b(1) = (  1.000000  0.000000  0.000000 )  
               b(2) = (  0.000000  0.577367  0.000000 )  
               b(3) = (  0.000000  0.000000  0.408247 )  


     PseudoPot. # 1 for Si read from file:
     ../pseudo/Si.vbc.UPF
     MD5 check sum: bcd8ae23180a2f07cc8655fe7dcd9644
     Pseudo is Norm-conserving, Zval =  4.0
     Generated by new atomic code, or converted to UPF format
     Using radial grid of  431 points,  2 beta functions with: 
                l(1) =   0
                l(2) =   1

     atomic species   valence    mass     pseudopotential
        Si             4.00    28.08600     Si( 1.00)

     No symmetry found
          (note:  1 additional sym.ops. were found but ignored
           their fractional translations are incommensurate with FFT grid)


   Cartesian axes

     site n.     atom                  positions (alat units)
         1           Si  tau(   1) = (   0.0000000   0.0000000   0.0000000  )
         2           Si  tau(   2) = (   0.4999964   0.8660196   0.0000000  )
         3           Si  tau(   3) = (   0.0000000   0.5773447   0.2041219  )
         4           Si  tau(   4) = (   0.4999964   1.4433643   0.2041219  )
         5           Si  tau(   5) = (   0.0000000   0.5773447   0.8164902  )
         6           Si  tau(   6) = (   0.4999964   1.4433643   0.8164902  )
         7           Si  tau(   7) = (   0.9999928   1.1546920   1.0206120  )
         8           Si  tau(   8) = (   0.4999964   0.2886723   1.0206120  )
         9           Si  tau(   9) = (   0.9999928   1.1546920   1.6329803  )
        10           Si  tau(  10) = (   0.4999964   0.2886723   1.6329803  )
        11           Si  tau(  11) = (   0.4999964   0.8660196   1.8371048  )
        12           Si  tau(  12) = (   0.9999928   1.7320393   1.8371048  )

     number of k points=    64
                       cart. coord. in units 2pi/alat
        k(    1) = (   0.0625000   0.0721709   0.0510308), wk =   0.0312500
        k(    2) = (   0.0625000   0.0721709   0.1530925), wk =   0.0312500
        k(    3) = (   0.0625000   0.2165127   0.0510308), wk =   0.0312500
        k(    4) = (   0.0625000   0.2165127   0.1530925), wk =   0.0312500
        k(    5) = (   0.1875000   0.0721709   0.0510308), wk =   0.0312500
        k(    6) = (   0.1875000   0.0721709   0.1530925), wk =   0.0312500
        k(    7) = (   0.1875000   0.2165127   0.0510308), wk =   0.0312500
        k(    8) = (   0.1875000   0.2165127   0.1530925), wk =   0.0312500
        k(    9) = (   0.3125000   0.0721709   0.0510308), wk =   0.0312500
        k(   10) = (   0.3125000   0.0721709   0.1530925), wk =   0.0312500
        k(   11) = (   0.3125000   0.2165127   0.0510308), wk =   0.0312500
        k(   12) = (   0.3125000   0.2165127   0.1530925), wk =   0.0312500
        k(   13) = (   0.4375000   0.0721709   0.0510308), wk =   0.0312500
        k(   14) = (   0.4375000   0.0721709   0.1530925), wk =   0.0312500
        k(   15) = (   0.4375000   0.2165127   0.0510308), wk =   0.0312500
        k(   16) = (   0.4375000   0.2165127   0.1530925), wk =   0.0312500
        k(   17) = (  -0.0625000  -0.0721709   0.0510308), wk =   0.0312500
        k(   18) = (  -0.0625000   0.0721709  -0.0510308), wk =   0.0312500
        k(   19) = (   0.0625000  -0.0721709  -0.0510308), wk =   0.0312500
        k(   20) = (  -0.0625000  -0.0721709   0.1530925), wk =   0.0312500
        k(   21) = (  -0.0625000   0.0721709  -0.1530925), wk =   0.0312500
        k(   22) = (   0.0625000  -0.0721709  -0.1530925), wk =   0.0312500
        k(   23) = (  -0.0625000  -0.2165127   0.0510308), wk =   0.0312500
        k(   24) = (  -0.0625000   0.2165127  -0.0510308), wk =   0.0312500
        k(   25) = (   0.0625000  -0.2165127  -0.0510308), wk =   0.0312500
        k(   26) = (  -0.0625000  -0.2165127   0.1530925), wk =   0.0312500
        k(   27) = (  -0.0625000   0.2165127  -0.1530925), wk =   0.0312500
        k(   28) = (   0.0625000  -0.2165127  -0.1530925), wk =   0.0312500
        k(   29) = (  -0.1875000  -0.0721709   0.0510308), wk =   0.0312500
        k(   30) = (  -0.1875000   0.0721709  -0.0510308), wk =   0.0312500
        k(   31) = (   0.1875000  -0.0721709  -0.0510308), wk =   0.0312500
        k(   32) = (  -0.1875000  -0.0721709   0.1530925), wk =   0.0312500
        k(   33) = (  -0.1875000   0.0721709  -0.1530925), wk =   0.0312500
        k(   34) = (   0.1875000  -0.0721709  -0.1530925), wk =   0.0312500
        k(   35) = (  -0.1875000  -0.2165127   0.0510308), wk =   0.0312500
        k(   36) = (  -0.1875000   0.2165127  -0.0510308), wk =   0.0312500
        k(   37) = (   0.1875000  -0.2165127  -0.0510308), wk =   0.0312500
        k(   38) = (  -0.1875000  -0.2165127   0.1530925), wk =   0.0312500
        k(   39) = (  -0.1875000   0.2165127  -0.1530925), wk =   0.0312500
        k(   40) = (   0.1875000  -0.2165127  -0.1530925), wk =   0.0312500
        k(   41) = (  -0.3125000  -0.0721709   0.0510308), wk =   0.0312500
        k(   42) = (  -0.3125000   0.0721709  -0.0510308), wk =   0.0312500
        k(   43) = (   0.3125000  -0.0721709  -0.0510308), wk =   0.0312500
        k(   44) = (  -0.3125000  -0.0721709   0.1530925), wk =   0.0312500
        k(   45) = (  -0.3125000   0.0721709  -0.1530925), wk =   0.0312500
        k(   46) = (   0.3125000  -0.0721709  -0.1530925), wk =   0.0312500
        k(   47) = (  -0.3125000  -0.2165127   0.0510308), wk =   0.0312500
        k(   48) = (  -0.3125000   0.2165127  -0.0510308), wk =   0.0312500
        k(   49) = (   0.3125000  -0.2165127  -0.0510308), wk =   0.0312500
        k(   50) = (  -0.3125000  -0.2165127   0.1530925), wk =   0.0312500
        k(   51) = (  -0.3125000   0.2165127  -0.1530925), wk =   0.0312500
        k(   52) = (   0.3125000  -0.2165127  -0.1530925), wk =   0.0312500
        k(   53) = (  -0.4375000  -0.0721709   0.0510308), wk =   0.0312500
        k(   54) = (  -0.4375000   0.0721709  -0.0510308), wk =   0.0312500
        k(   55) = (   0.4375000  -0.0721709  -0.0510308), wk =   0.0312500
        k(   56) = (  -0.4375000  -0.0721709   0.1530925), wk =   0.0312500
        k(   57) = (  -0.4375000   0.0721709  -0.1530925), wk =   0.0312500
        k(   58) = (   0.4375000  -0.0721709  -0.1530925), wk =   0.0312500
        k(   59) = (  -0.4375000  -0.2165127   0.0510308), wk =   0.0312500
        k(   60) = (  -0.4375000   0.2165127  -0.0510308), wk =   0.0312500
        k(   61) = (   0.4375000  -0.2165127  -0.0510308), wk =   0.0312500
        k(   62) = (  -0.4375000  -0.2165127   0.1530925), wk =   0.0312500
        k(   63) = (  -0.4375000   0.2165127  -0.1530925), wk =   0.0312500
        k(   64) = (   0.4375000  -0.2165127  -0.1530925), wk =   0.0312500

     Dense  grid:    27369 G-vectors     FFT dimensions: (  24,  40,  60)

     Largest allocated arrays     est. size (Mb)     dimensions
        Kohn-Sham Wavefunctions         0.21 Mb     (    578,   24)
        NL pseudopotentials             0.42 Mb     (    578,   48)
        Each V/rho on FFT grid          0.15 Mb     (   9600)
        Each G-vector array             0.03 Mb     (   4563)
        G-vector shells                 0.01 Mb     (   1844)
     Largest temporary arrays     est. size (Mb)     dimensions
        Auxiliary wavefunctions         0.85 Mb     (    578,   96)
        Each subspace H/S matrix        0.14 Mb     (  96,  96)
        Each <psi_i|beta_j> matrix      0.02 Mb     (     48,   24)
        Arrays for rho mixing           1.17 Mb     (   9600,   8)

     Initial potential from superposition of free atoms

     starting charge   47.99405, renormalised to   48.00000
     Starting wfc are   48 randomized atomic wfcs

     total cpu time spent up to now is        3.5 secs

     per-process dynamical memory:     6.2 Mb

     Self-consistent Calculation

     iteration #  1     ecut=    25.00 Ry     beta=0.70
     Davidson diagonalization with overlap
     ethr =  1.00E-02,  avg # of iterations =  2.0

     Threshold (ethr) on eigenvalues was too large:
     Diagonalizing with lowered threshold

     Davidson diagonalization with overlap
     ethr =  7.64E-04,  avg # of iterations =  1.0

     total cpu time spent up to now is       15.0 secs

     total energy              =     -95.08775714 Ry
     Harris-Foulkes estimate   =     -95.20795093 Ry
     estimated scf accuracy    <       0.35924053 Ry

     iteration #  2     ecut=    25.00 Ry     beta=0.70
     Davidson diagonalization with overlap
     ethr =  7.48E-04,  avg # of iterations =  1.0

     total cpu time spent up to now is       18.5 secs

     total energy              =     -95.10519431 Ry
     Harris-Foulkes estimate   =     -95.10699357 Ry
     estimated scf accuracy    <       0.01286508 Ry

     iteration #  3     ecut=    25.00 Ry     beta=0.70
     Davidson diagonalization with overlap
     ethr =  2.68E-05,  avg # of iterations =  3.0

     total cpu time spent up to now is       23.8 secs

     total energy              =     -95.10778527 Ry
     Harris-Foulkes estimate   =     -95.10798139 Ry
     estimated scf accuracy    <       0.00043258 Ry

     iteration #  4     ecut=    25.00 Ry     beta=0.70
     Davidson diagonalization with overlap
     ethr =  9.01E-07,  avg # of iterations =  2.3

     total cpu time spent up to now is       29.1 secs

     total energy              =     -95.10788570 Ry
     Harris-Foulkes estimate   =     -95.10790944 Ry
     estimated scf accuracy    <       0.00005046 Ry

     iteration #  5     ecut=    25.00 Ry     beta=0.70
     Davidson diagonalization with overlap
     ethr =  1.05E-07,  avg # of iterations =  2.2

     total cpu time spent up to now is       34.2 secs

     total energy              =     -95.10789324 Ry
     Harris-Foulkes estimate   =     -95.10789456 Ry
     estimated scf accuracy    <       0.00000384 Ry

     iteration #  6     ecut=    25.00 Ry     beta=0.70
     Davidson diagonalization with overlap
     ethr =  7.99E-09,  avg # of iterations =  2.6

     total cpu time spent up to now is       39.1 secs

     total energy              =     -95.10789384 Ry
     Harris-Foulkes estimate   =     -95.10789395 Ry
     estimated scf accuracy    <       0.00000032 Ry

     iteration #  7     ecut=    25.00 Ry     beta=0.70
     Davidson diagonalization with overlap
     ethr =  6.70E-10,  avg # of iterations =  2.0

     total cpu time spent up to now is       43.3 secs

     total energy              =     -95.10789385 Ry
     Harris-Foulkes estimate   =     -95.10789387 Ry
     estimated scf accuracy    <       0.00000006 Ry

     iteration #  8     ecut=    25.00 Ry     beta=0.70
     Davidson diagonalization with overlap
     ethr =  1.27E-10,  avg # of iterations =  2.0

     total cpu time spent up to now is       48.1 secs

     End of self-consistent calculation

          k = 0.0625 0.0722 0.0510 (  3422 PWs)   bands (ev):

    -5.7823  -4.7303  -4.1070  -3.7502  -3.2705  -2.0137  -1.3879  -0.7799
     0.1384   0.2143   1.4197   2.8613   3.0299   3.1404   3.2752   4.0987
     4.3707   4.3845   4.3906   4.7850   5.2408   5.3284   5.6887   5.8062

          k = 0.0625 0.0722 0.1531 (  3416 PWs)   bands (ev):

    -5.6010  -5.2449  -3.5564  -3.5561  -3.5301  -1.9955  -1.3241  -0.7471
    -0.7470   0.3387   2.2207   2.7836   2.8705   3.1755   3.6040   4.2728
     4.2730   4.3508   4.6605   4.6869   4.6871   5.2117   5.5693   5.6334

          k = 0.0625 0.2165 0.0510 (  3417 PWs)   bands (ev):

    -5.4224  -4.7180  -4.3723  -3.7643  -3.7641  -3.0429  -0.2087   0.2406
     0.2407   1.3650   1.8601   2.5086   2.7243   2.7244   3.3851   3.3929
     3.4888   3.8722   4.3012   4.5381   4.5382   4.7532   5.0398   5.7127

          k = 0.0625 0.2165 0.1531 (  3422 PWs)   bands (ev):

    -5.2444  -4.8848  -4.5315  -4.2421  -3.2053  -2.4913  -0.8284  -0.6040
     0.5651   1.9065   1.9378   2.5335   2.7208   2.8753   3.4773   3.6565
     3.8875   3.9701   4.1592   4.2398   4.5841   4.8378   4.8566   5.3535

          k = 0.1875 0.0722 0.0510 (  3410 PWs)   bands (ev):

    -5.5106  -4.4703  -3.8376  -3.5168  -3.0016  -1.9904  -1.2950  -0.7206
     0.1914   0.2070   1.3938   2.1002   2.2492   2.5312   3.0864   3.1271
     3.4313   4.0237   4.0604   4.1582   4.1943   5.0146   5.1126   5.4308

          k = 0.1875 0.0722 0.1531 (  3417 PWs)   bands (ev):

    -5.3292  -4.9806  -3.3230  -3.2850  -3.2847  -1.8657  -1.3383  -0.6426
    -0.6425   0.1255   2.2212   2.3038   2.4485   2.4777   3.1283   3.1285
     3.5240   3.7426   3.7649   4.2389   4.2391   4.7396   4.8059   5.4603

          k = 0.1875 0.2165 0.0510 (  3415 PWs)   bands (ev):

    -5.1542  -4.4672  -4.1322  -3.4894  -3.4893  -2.8606  -0.3463   0.1583
     0.1584   1.0386   1.4976   2.2030   2.6584   2.6584   2.7145   2.9338
     3.0115   3.0753   3.7328   3.7330   4.1400   4.5539   5.0228   5.3463

          k = 0.1875 0.2165 0.1531 (  3421 PWs)   bands (ev):

    -4.9734  -4.6352  -4.2934  -3.9706  -2.9321  -2.2787  -0.9145  -0.6085
     0.5737   1.1737   1.6414   1.9449   2.3475   2.6840   2.7676   3.3302
     3.4004   3.6844   3.6960   4.0814   4.2233   4.3962   4.5887   4.8683

          k = 0.3125 0.0722 0.0510 (  3413 PWs)   bands (ev):

    -4.9784  -3.9746  -3.3138  -3.1231  -2.4889  -2.4329  -0.8653  -0.8402
    -0.2615   0.0520   0.7455   1.6816   1.8064   1.8917   2.4960   2.5360
     2.6635   3.5066   3.5156   3.7591   3.9027   4.2151   4.4588   5.1647

          k = 0.3125 0.0722 0.1531 (  3417 PWs)   bands (ev):

    -4.7966  -4.4709  -3.0357  -2.7560  -2.7557  -2.2460  -0.9483  -0.6577
    -0.6575  -0.4861   1.2103   1.8185   2.1326   2.1327   2.2685   2.3453
     2.8863   3.5063   3.5063   3.7389   3.7974   3.9164   4.4608   4.7679

          k = 0.3125 0.2165 0.0510 (  3421 PWs)   bands (ev):

    -4.6325  -4.0017  -3.7048  -2.9496  -2.9495  -2.7033  -0.6937  -0.3228
    -0.3227   0.0663   0.4096   1.6424   2.0677   2.5140   2.5142   2.7795
     3.0838   3.3739   3.4463   3.4465   4.0402   4.5132   4.6433   4.8783

          k = 0.3125 0.2165 0.1531 (  3432 PWs)   bands (ev):

    -4.4433  -4.1730  -3.8717  -3.4402  -2.4043  -2.1596  -1.0408  -0.9117
     0.0091   0.2490   0.3527   1.7500   1.8402   1.8973   2.7664   2.8612
     3.5516   3.5691   3.6001   3.6831   3.9676   4.0192   4.6349   4.9757

          k = 0.4375 0.0722 0.0510 (  3415 PWs)   bands (ev):

    -4.2164  -3.3344  -3.3015  -2.9040  -2.5866  -1.9912  -1.2816  -0.7277
    -0.6504  -0.2569  -0.0110   1.1146   1.8968   2.0125   2.2827   2.3905
     2.7149   2.8263   2.8633   3.2400   3.9017   4.0368   4.0730   4.6789

          k = 0.4375 0.0722 0.1531 (  3420 PWs)   bands (ev):

    -4.0335  -3.7785  -3.1305  -3.1165  -2.0117  -2.0114  -1.1860  -1.1857
    -0.6906  -0.1227   0.0227   0.9934   2.0387   2.0388   2.1383   2.6547
     2.6548   2.8033   2.9220   3.4547   3.5383   4.0387   4.1025   4.2460

          k = 0.4375 0.2165 0.0510 (  3428 PWs)   bands (ev):

    -3.9021  -3.4653  -3.3133  -3.1084  -2.1720  -2.1719  -1.2280  -1.2279
    -0.7334  -0.5701  -0.5057   0.3913   2.5563   2.7748   2.7749   3.2089
     3.2091   3.2478   3.3853   3.4280   3.8121   4.1399   4.4688   4.4776

          k = 0.4375 0.2165 0.1531 (  3434 PWs)   bands (ev):

    -3.6883  -3.6435  -3.4914  -2.8061  -2.6891  -1.9272  -1.4014  -0.8159
    -0.6532  -0.5969  -0.4859   0.5356   2.1167   2.2137   2.7040   2.9573
     3.0123   3.3102   3.3516   3.7057   4.1167   4.3355   4.7365   4.7981

          k =-0.0625-0.0722 0.0510 (  3422 PWs)   bands (ev):

    -5.7824  -4.7297  -4.1077  -3.8192  -2.9137  -2.6404  -0.7331  -0.7168
    -0.1828   0.1401   1.4184   2.3590   3.0405   3.2787   3.8617   3.9023
     4.2392   4.5683   4.6422   4.9526   5.0313   5.1734   5.7815   5.9084

          k =-0.0625 0.0722-0.0510 (  3422 PWs)   bands (ev):

    -5.7824  -4.7297  -4.1077  -3.8192  -2.9137  -2.6404  -0.7331  -0.7168
    -0.1828   0.1401   1.4184   2.3590   3.0405   3.2787   3.8617   3.9023
     4.2392   4.5683   4.6421   4.9526   5.0314   5.1734   5.7815   5.9084

          k = 0.0625-0.0722-0.0510 (  3422 PWs)   bands (ev):

    -5.7823  -4.7303  -4.1070  -3.7502  -3.2705  -2.0137  -1.3879  -0.7799
     0.1384   0.2143   1.4197   2.8613   3.0299   3.1404   3.2752   4.0987
     4.3708   4.3845   4.3905   4.7850   5.2408   5.3283   5.6887   5.8062

          k =-0.0625-0.0722 0.1531 (  3416 PWs)   bands (ev):

    -5.6013  -5.2444  -3.7478  -3.5568  -3.1570  -2.4910  -0.8287  -0.7462
    -0.5406  -0.0744   1.9378   2.8752   3.0177   3.2617   3.4772   4.2108
     4.2994   4.4823   4.7547   4.8380   4.8839   5.1032   5.3536   5.8345

          k =-0.0625 0.0722-0.1531 (  3416 PWs)   bands (ev):

    -5.6013  -5.2444  -3.7478  -3.5568  -3.1570  -2.4910  -0.8287  -0.7462
    -0.5406  -0.0744   1.9378   2.8752   3.0177   3.2617   3.4772   4.2108
     4.2994   4.4823   4.7547   4.8380   4.8839   5.1032   5.3536   5.8346

          k = 0.0625-0.0722-0.1531 (  3416 PWs)   bands (ev):

    -5.6010  -5.2449  -3.5564  -3.5561  -3.5301  -1.9955  -1.3241  -0.7471
    -0.7470   0.3387   2.2207   2.7836   2.8705   3.1755   3.6040   4.2728
     4.2730   4.3508   4.6605   4.6869   4.6871   5.2117   5.5693   5.6334

          k =-0.0625-0.2165 0.0510 (  3417 PWs)   bands (ev):

    -5.4209  -4.7302  -4.3837  -3.7504  -3.6648  -3.1722  -0.1595   0.2145
     0.5954   1.3406   1.4198   1.8968   2.9786   3.1404   3.1772   3.4898
     3.7276   4.0988   4.1082   4.3844   4.7104   4.9135   5.2408   5.4869

          k =-0.0625 0.2165-0.0510 (  3417 PWs)   bands (ev):

    -5.4209  -4.7302  -4.3837  -3.7504  -3.6648  -3.1722  -0.1595   0.2145
     0.5954   1.3406   1.4198   1.8968   2.9786   3.1404   3.1772   3.4898
     3.7276   4.0988   4.1082   4.3844   4.7104   4.9135   5.2407   5.4869

          k = 0.0625-0.2165-0.0510 (  3417 PWs)   bands (ev):

    -5.4224  -4.7180  -4.3723  -3.7643  -3.7641  -3.0429  -0.2087   0.2406
     0.2407   1.3650   1.8601   2.5086   2.7243   2.7244   3.3851   3.3929
     3.4888   3.8722   4.3012   4.5381   4.5382   4.7532   5.0398   5.7127

          k =-0.0625-0.2165 0.1531 (  3422 PWs)   bands (ev):

    -5.2398  -4.8927  -4.5693  -4.1755  -3.1964  -2.5870  -0.7134  -0.6197
     0.9523   1.3687   1.6700   2.2639   2.8757   3.4149   3.6028   3.7058
     3.7303   3.7641   4.0801   4.6833   4.7140   4.8022   4.9686   5.2494

          k =-0.0625 0.2165-0.1531 (  3422 PWs)   bands (ev):

    -5.2398  -4.8927  -4.5693  -4.1756  -3.1964  -2.5870  -0.7134  -0.6197
     0.9523   1.3688   1.6700   2.2639   2.8757   3.4149   3.6028   3.7059
     3.7303   3.7641   4.0801   4.6833   4.7140   4.8022   4.9685   5.2494

          k = 0.0625-0.2165-0.1531 (  3422 PWs)   bands (ev):

    -5.2444  -4.8848  -4.5315  -4.2421  -3.2053  -2.4913  -0.8284  -0.6040
     0.5651   1.9065   1.9378   2.5335   2.7208   2.8753   3.4773   3.6565
     3.8875   3.9701   4.1592   4.2399   4.5842   4.8378   4.8566   5.3535

          k =-0.1875-0.0722 0.0510 (  3410 PWs)   bands (ev):

    -5.5120  -4.4600  -3.8501  -3.5671  -2.6619  -2.5281  -0.7849  -0.7385
    -0.0896   0.2330   1.4026   2.0284   2.1749   2.6416   2.9271   3.4028
     3.4927   3.6668   3.8100   4.3195   4.5942   4.7376   5.3783   5.7131

          k =-0.1875 0.0722-0.0510 (  3410 PWs)   bands (ev):

    -5.5120  -4.4600  -3.8501  -3.5671  -2.6619  -2.5281  -0.7849  -0.7385
    -0.0896   0.2330   1.4026   2.0284   2.1749   2.6417   2.9271   3.4028
     3.4927   3.6668   3.8100   4.3195   4.5942   4.7377   5.3783   5.7131

          k = 0.1875-0.0722-0.0510 (  3410 PWs)   bands (ev):

    -5.5106  -4.4703  -3.8376  -3.5168  -3.0016  -1.9904  -1.2950  -0.7206
     0.1914   0.2070   1.3938   2.1002   2.2492   2.5312   3.0864   3.1271
     3.4313   4.0237   4.0603   4.1582   4.1943   5.0147   5.1126   5.4308

          k =-0.1875-0.0722 0.1531 (  3417 PWs)   bands (ev):

    -5.3333  -4.9734  -3.4830  -3.2929  -2.9881  -2.2785  -0.9147  -0.6281
    -0.4216  -0.2726   1.9449   2.3961   2.6839   2.7676   2.9482   3.1289
     3.1582   3.3351   4.2233   4.4202   4.4303   4.5887   4.8495   5.6110

          k =-0.1875 0.0722-0.1531 (  3417 PWs)   bands (ev):

    -5.3333  -4.9734  -3.4830  -3.2929  -2.9881  -2.2784  -0.9147  -0.6281
    -0.4216  -0.2726   1.9449   2.3961   2.6839   2.7676   2.9482   3.1289
     3.1582   3.3351   4.2233   4.4202   4.4303   4.5887   4.8495   5.6110

          k = 0.1875-0.0722-0.1531 (  3417 PWs)   bands (ev):

    -5.3292  -4.9806  -3.3230  -3.2850  -3.2847  -1.8657  -1.3383  -0.6426
    -0.6425   0.1255   2.2212   2.3038   2.4485   2.4777   3.1283   3.1285
     3.5240   3.7426   3.7649   4.2390   4.2391   4.7396   4.8059   5.4603

          k =-0.1875-0.2165 0.0510 (  3415 PWs)   bands (ev):

    -5.1571  -4.4702  -4.1100  -3.5169  -3.4644  -2.8941  -0.3337   0.1915
     0.2282   1.1448   1.3938   2.0879   2.2492   2.6177   2.6661   3.1061
     3.1271   3.2188   3.5972   3.9788   4.1583   4.4708   5.1126   5.5830

          k =-0.1875 0.2165-0.0510 (  3415 PWs)   bands (ev):

    -5.1571  -4.4702  -4.1100  -3.5169  -3.4645  -2.8941  -0.3337   0.1915
     0.2282   1.1448   1.3938   2.0879   2.2492   2.6177   2.6660   3.1061
     3.1271   3.2188   3.5972   3.9788   4.1583   4.4708   5.1126   5.5830

          k = 0.1875-0.2165-0.0510 (  3415 PWs)   bands (ev):

    -5.1542  -4.4672  -4.1322  -3.4894  -3.4893  -2.8606  -0.3462   0.1583
     0.1584   1.0385   1.4976   2.2030   2.6584   2.6584   2.7145   2.9337
     3.0115   3.0753   3.7328   3.7330   4.1400   4.5539   5.0228   5.3463

          k =-0.1875-0.2165 0.1531 (  3421 PWs)   bands (ev):

    -4.9822  -4.6200  -4.3026  -3.9543  -2.9505  -2.3064  -0.8841  -0.5794
     0.7228   0.9948   1.8717   2.0369   2.1326   2.1855   2.8390   3.2569
     3.5424   3.7514   3.8418   3.9520   4.2515   4.5428   4.7958   4.9073

          k =-0.1875 0.2165-0.1531 (  3421 PWs)   bands (ev):

    -4.9822  -4.6200  -4.3026  -3.9543  -2.9505  -2.3064  -0.8841  -0.5794
     0.7228   0.9949   1.8717   2.0369   2.1325   2.1854   2.8390   3.2569
     3.5424   3.7514   3.8419   3.9520   4.2515   4.5428   4.7958   4.9073

          k = 0.1875-0.2165-0.1531 (  3421 PWs)   bands (ev):

    -4.9734  -4.6352  -4.2934  -3.9706  -2.9321  -2.2787  -0.9145  -0.6085
     0.5737   1.1737   1.6414   1.9449   2.3475   2.6840   2.7676   3.3302
     3.4004   3.6844   3.6960   4.0815   4.2233   4.3962   4.5887   4.8683

          k =-0.3125-0.0722 0.0510 (  3413 PWs)   bands (ev):

    -4.9836  -3.9342  -3.3649  -3.1043  -2.6515  -2.2545  -1.0066  -0.7782
    -0.2104   0.0903   0.9430   1.6787   1.8111   1.8867   2.0426   2.1309
     3.0672   3.4508   3.7433   3.8991   4.0446   4.1135   4.2966   5.4788

          k =-0.3125 0.0722-0.0510 (  3413 PWs)   bands (ev):

    -4.9835  -3.9342  -3.3649  -3.1043  -2.6516  -2.2545  -1.0066  -0.7781
    -0.2103   0.0903   0.9430   1.6787   1.8111   1.8867   2.0426   2.1309
     3.0672   3.4508   3.7433   3.8991   4.0446   4.1135   4.2967   5.4788

          k = 0.3125-0.0722-0.0510 (  3413 PWs)   bands (ev):

    -4.9784  -3.9746  -3.3138  -3.1231  -2.4889  -2.4330  -0.8653  -0.8402
    -0.2615   0.0520   0.7455   1.6816   1.8064   1.8917   2.4959   2.5360
     2.6635   3.5066   3.5156   3.7592   3.9027   4.2151   4.4588   5.1647

          k =-0.3125-0.0722 0.1531 (  3417 PWs)   bands (ev):

    -4.8124  -4.4433  -2.9758  -2.8657  -2.7914  -2.1594  -1.0409  -0.6803
    -0.6071  -0.4039   1.6540   1.7501   1.8401   1.9297   2.1011   2.2819
     2.8613   3.5940   3.6830   3.6996   3.7208   4.0191   4.7048   4.8802

          k =-0.3125 0.0722-0.1531 (  3417 PWs)   bands (ev):

    -4.8124  -4.4433  -2.9758  -2.8657  -2.7914  -2.1594  -1.0409  -0.6803
    -0.6071  -0.4039   1.6540   1.7501   1.8401   1.9297   2.1011   2.2819
     2.8613   3.5939   3.6831   3.6996   3.7208   4.0191   4.7049   4.8802

          k = 0.3125-0.0722-0.1531 (  3417 PWs)   bands (ev):

    -4.7966  -4.4709  -3.0357  -2.7560  -2.7557  -2.2460  -0.9483  -0.6577
    -0.6575  -0.4860   1.2103   1.8185   2.1326   2.1327   2.2684   2.3453
     2.8863   3.5063   3.5063   3.7389   3.7974   3.9164   4.4608   4.7679

          k =-0.3125-0.2165 0.0510 (  3421 PWs)   bands (ev):

    -4.6486  -3.9745  -3.5728  -3.1961  -3.1233  -2.3465  -0.9226  -0.5101
    -0.2614   0.4642   0.7454   1.1848   1.8917   2.3867   2.6636   2.7352
     2.8591   3.2358   3.4813   3.9477   4.2152   4.4588   4.6072   5.0509

          k =-0.3125 0.2165-0.0510 (  3421 PWs)   bands (ev):

    -4.6486  -3.9745  -3.5728  -3.1961  -3.1233  -2.3465  -0.9226  -0.5101
    -0.2614   0.4642   0.7454   1.1848   1.8918   2.3867   2.6636   2.7352
     2.8591   3.2357   3.4813   3.9477   4.2152   4.4588   4.6072   5.0509

          k = 0.3125-0.2165-0.0510 (  3421 PWs)   bands (ev):

    -4.6325  -4.0017  -3.7047  -2.9496  -2.9495  -2.7033  -0.6937  -0.3228
    -0.3227   0.0662   0.4096   1.6424   2.0677   2.5140   2.5141   2.7795
     3.0838   3.3739   3.4463   3.4465   4.0402   4.5132   4.6433   4.8783

          k =-0.3125-0.2165 0.1531 (  3432 PWs)   bands (ev):

    -4.4930  -4.0852  -3.7862  -3.5962  -2.5359  -1.7776  -1.4284  -0.7612
    -0.3037   0.6873   0.7222   1.2367   1.6163   2.1489   2.5469   2.6940
     3.4961   3.6376   3.6862   3.8219   3.8352   4.2886   4.9348   5.0379

          k =-0.3125 0.2165-0.1531 (  3432 PWs)   bands (ev):

    -4.4930  -4.0852  -3.7862  -3.5962  -2.5359  -1.7776  -1.4284  -0.7613
    -0.3037   0.6873   0.7221   1.2367   1.6163   2.1489   2.5469   2.6940
     3.4961   3.6376   3.6862   3.8219   3.8352   4.2886   4.9348   5.0380

          k = 0.3125-0.2165-0.1531 (  3432 PWs)   bands (ev):

    -4.4433  -4.1730  -3.8717  -3.4402  -2.4043  -2.1596  -1.0408  -0.9117
     0.0091   0.2490   0.3527   1.7500   1.8402   1.8973   2.7663   2.8612
     3.5516   3.5691   3.6000   3.6831   3.9676   4.0192   4.6349   4.9758

          k =-0.4375-0.0722 0.0510 (  3415 PWs)   bands (ev):

    -4.2324  -3.3564  -3.1943  -2.7831  -2.6344  -2.3973  -0.9169  -0.7144
    -0.5522  -0.2241  -0.0361   0.7998   1.8901   1.9722   2.0272   2.3272
     2.6294   3.1983   3.3640   3.4511   3.4630   3.5540   4.4439   5.0219

          k =-0.4375 0.0722-0.0510 (  3415 PWs)   bands (ev):

    -4.2324  -3.3564  -3.1943  -2.7831  -2.6345  -2.3973  -0.9170  -0.7144
    -0.5522  -0.2241  -0.0361   0.7997   1.8901   1.9722   2.0272   2.3272
     2.6294   3.1983   3.3640   3.4511   3.4630   3.5540   4.4439   5.0219

          k = 0.4375-0.0722-0.0510 (  3415 PWs)   bands (ev):

    -4.2164  -3.3344  -3.3015  -2.9041  -2.5866  -1.9912  -1.2816  -0.7277
    -0.6504  -0.2570  -0.0110   1.1145   1.8968   2.0125   2.2827   2.3905
     2.7149   2.8263   2.8633   3.2400   3.9017   4.0368   4.0730   4.6789

          k =-0.4375-0.0722 0.1531 (  3420 PWs)   bands (ev):

    -4.0836  -3.6883  -3.2915  -2.8061  -2.3276  -2.1965  -0.9945  -0.8548
    -0.5103  -0.4857   0.3791   0.5357   1.7904   1.9051   2.2135   2.8009
     2.8124   2.9029   2.9572   3.3102   3.6919   3.7056   4.2159   4.6601

          k =-0.4375 0.0722-0.1531 (  3420 PWs)   bands (ev):

    -4.0836  -3.6883  -3.2915  -2.8061  -2.3276  -2.1964  -0.9945  -0.8547
    -0.5103  -0.4858   0.3791   0.5358   1.7904   1.9051   2.2135   2.8009
     2.8124   2.9029   2.9572   3.3102   3.6919   3.7056   4.2159   4.6601

          k = 0.4375-0.0722-0.1531 (  3420 PWs)   bands (ev):

    -4.0335  -3.7785  -3.1305  -3.1165  -2.0117  -2.0114  -1.1859  -1.1857
    -0.6906  -0.1227   0.0227   0.9934   2.0387   2.0388   2.1384   2.6548
     2.6548   2.8033   2.9220   3.4547   3.5383   4.0387   4.1025   4.2461

          k =-0.4375-0.2165 0.0510 (  3428 PWs)   bands (ev):

    -3.9589  -3.3343  -3.3117  -2.9041  -2.7994  -1.8633  -1.5412  -0.7360
    -0.7277  -0.5578  -0.2571  -0.0283   2.2827   2.7149   2.7700   3.0974
     3.2180   3.2746   3.3250   3.9018   4.0369   4.1718   4.3601   4.6301

          k =-0.4375 0.2165-0.0510 (  3428 PWs)   bands (ev):

    -3.9589  -3.3343  -3.3117  -2.9041  -2.7994  -1.8633  -1.5412  -0.7360
    -0.7277  -0.5578  -0.2571  -0.0283   2.2827   2.7149   2.7700   3.0974
     3.2180   3.2746   3.3250   3.9018   4.0369   4.1718   4.3601   4.6301

          k = 0.4375-0.2165-0.0510 (  3428 PWs)   bands (ev):

    -3.9021  -3.4653  -3.3133  -3.1084  -2.1720  -2.1719  -1.2280  -1.2279
    -0.7334  -0.5701  -0.5057   0.3912   2.5563   2.7748   2.7749   3.2089
     3.2091   3.2478   3.3853   3.4280   3.8121   4.1400   4.4687   4.4776

          k =-0.4375-0.2165 0.1531 (  3434 PWs)   bands (ev):

    -3.8670  -3.4363  -3.3172  -3.0786  -2.4337  -2.3894  -0.9124  -0.8957
    -0.8749  -0.4118  -0.1866   0.1183   1.8419   2.4040   2.5252   2.9583
     3.1434   3.3725   3.3918   3.6377   4.0879   4.6729   4.7442   4.9286

          k =-0.4375 0.2165-0.1531 (  3434 PWs)   bands (ev):

    -3.8670  -3.4363  -3.3172  -3.0786  -2.4337  -2.3894  -0.9124  -0.8957
    -0.8749  -0.4119  -0.1866   0.1183   1.8419   2.4040   2.5253   2.9583
     3.1434   3.3725   3.3918   3.6378   4.0878   4.6729   4.7442   4.9286

          k = 0.4375-0.2165-0.1531 (  3434 PWs)   bands (ev):

    -3.6883  -3.6434  -3.4914  -2.8061  -2.6891  -1.9272  -1.4014  -0.8159
    -0.6532  -0.5969  -0.4858   0.5356   2.1167   2.2137   2.7040   2.9573
     3.0123   3.3102   3.3516   3.7057   4.1167   4.3355   4.7365   4.7982

!    total energy              =     -95.10789385 Ry
     Harris-Foulkes estimate   =     -95.10789386 Ry
     estimated scf accuracy    <          1.6E-09 Ry

     The total energy is the sum of the following terms:

     one-electron contribution =      27.93075327 Ry
     hartree contribution      =       6.55328009 Ry
     xc contribution           =     -28.78528849 Ry
     ewald contribution        =    -100.80663872 Ry

     convergence has been achieved in   8 iterations

     Forces acting on atoms (Ry/au):

     atom    1 type  1   force =    -0.00000652    0.00000055   -0.00005904
     atom    2 type  1   force =     0.00000550   -0.00004081   -0.00004223
     atom    3 type  1   force =    -0.00000550    0.00003568    0.00000928
     atom    4 type  1   force =     0.00000564    0.00000158    0.00002020
     atom    5 type  1   force =    -0.00000653   -0.00002941   -0.00001197
     atom    6 type  1   force =    -0.00000616   -0.00007522   -0.00002392
     atom    7 type  1   force =     0.00000665    0.00002927    0.00001328
     atom    8 type  1   force =     0.00000606    0.00007536    0.00002510
     atom    9 type  1   force =     0.00000547   -0.00003120   -0.00000796
     atom   10 type  1   force =    -0.00000563    0.00000294   -0.00001901
     atom   11 type  1   force =    -0.00000547    0.00003649    0.00003967
     atom   12 type  1   force =     0.00000649   -0.00000523    0.00005660

     Total force =     0.000177     Total SCF correction =     0.000074
     SCF correction compared to forces is large: reduce conv_thr to get better values

     Writing output data file si111.save
 
     init_run     :      3.04s CPU      3.48s WALL (       1 calls)
     electrons    :     41.35s CPU     44.58s WALL (       1 calls)
     forces       :      0.29s CPU      0.29s WALL (       1 calls)

     Called by init_run:
     wfcinit      :      2.98s CPU      3.13s WALL (       1 calls)
     potinit      :      0.03s CPU      0.02s WALL (       1 calls)

     Called by electrons:
     c_bands      :     36.36s CPU     39.43s WALL (       9 calls)
     sum_band     :      4.86s CPU      5.03s WALL (       9 calls)
     v_of_rho     :      0.01s CPU      0.02s WALL (       9 calls)
     mix_rho      :      0.04s CPU      0.01s WALL (       9 calls)

     Called by c_bands:
     init_us_2    :      0.29s CPU      0.38s WALL (    1280 calls)
     cegterg      :     35.61s CPU     35.84s WALL (     576 calls)

     Called by *egterg:
     h_psi        :     29.39s CPU     29.43s WALL (    1806 calls)
     g_psi        :      0.34s CPU      0.36s WALL (    1166 calls)
     cdiaghg      :      3.55s CPU      3.43s WALL (    1678 calls)

     Called by h_psi:
     add_vuspsi   :      1.45s CPU      1.30s WALL (    1806 calls)

     General routines
     calbec       :      1.61s CPU      1.66s WALL (    1870 calls)
     fft          :      0.01s CPU      0.02s WALL (      39 calls)
     fftw         :     28.63s CPU     28.91s WALL (   91264 calls)
     davcio       :      0.03s CPU      3.07s WALL (    1856 calls)
 
     Parallel routines
     fft_scatter  :      9.18s CPU      9.06s WALL (   91303 calls)
 
     PWSCF        :    44.83s CPU        48.59s WALL

 
   This run was terminated on:  22: 9:48  14Aug2012            

=------------------------------------------------------------------------------=
   JOB DONE.
=------------------------------------------------------------------------------=
