
     Program PWSCF v.5.0.2 (svn rev. 10303M) starts on  2Aug2013 at 10:14:28 

     This program is part of the open-source Quantum ESPRESSO suite
     for quantum simulation of materials; please cite
         "P. Giannozzi et al., J. Phys.:Condens. Matter 21 395502 (2009);
          URL http://www.quantum-espresso.org", 
     in publications or presentations arising from this work. More details at
     http://www.quantum-espresso.org/quote

     Parallel version (MPI & OpenMP), running on       6 processor cores
     Number of MPI processes:                 6
     Threads/MPI process:                     1
     R & G space division:  proc/nbgrp/npool/nimage =       6
     Reading input from /home/ferretti/want/tests/test18/nscf_AuUS.in

     Current dimensions of program PWSCF are:
     Max number of different atomic species (ntypx) = 10
     Max number of k-points (npk) =  40000
     Max angular momentum in pseudopotentials (lmaxx) =  3

     Atomic positions and unit cell read from directory:
     ./SCRATCH/gold_US.save/
 

     gamma-point specific algorithms are used

     Subspace diagonalization in iterative solution of the eigenvalue problem:
     a serial algorithm will be used

     Found symmetry operation: I + (  0.0000  0.0000  0.0833)
     This is a supercell, fractional translations are disabled
 
     Parallelization info
     --------------------
     sticks:   dense  smooth     PW     G-vecs:    dense   smooth      PW
     Min        1060     530    131               180508    63766    7981
     Max        1064     531    134               180516    63859    7998
     Sum        6369    3181    793              1083071   382897   47923
     Tot        3185    1591    397
 


     bravais-lattice index     =            8
     lattice parameter (alat)  =      20.0000  a.u.
     unit-cell volume          =   22676.7225 (a.u.)^3
     number of atoms/cell      =           12
     number of atomic types    =            1
     number of electrons       =       132.00
     number of Kohn-Sham states=           80
     kinetic-energy cutoff     =      25.0000  Ry
     charge density cutoff     =     200.0000  Ry
     Exchange-correlation      =  SLA  PW   GGX  GGC ( 1 4 2 2 0)
     EXX-fraction              =        0.00

     celldm(1)=  20.000000  celldm(2)=   1.000000  celldm(3)=   2.834590
     celldm(4)=   0.000000  celldm(5)=   0.000000  celldm(6)=   0.000000

     crystal axes: (cart. coord. in units of alat)
               a(1) = (   1.000000   0.000000   0.000000 )  
               a(2) = (   0.000000   1.000000   0.000000 )  
               a(3) = (   0.000000   0.000000   2.834590 )  

     reciprocal axes: (cart. coord. in units 2 pi/alat)
               b(1) = (  1.000000  0.000000  0.000000 )  
               b(2) = (  0.000000  1.000000  0.000000 )  
               b(3) = (  0.000000  0.000000  0.352785 )  


     PseudoPot. # 1 for Au read from file:
     ../pseudo/Au.pw91-d-van.UPF
     MD5 check sum: dc02f59ef2ea6b62d9e9493d750aaae0
     Pseudo is Ultrasoft, Zval = 11.0
     Generated by new atomic code, or converted to UPF format
     Using radial grid of  939 points,  6 beta functions with: 
                l(1) =   0
                l(2) =   0
                l(3) =   1
                l(4) =   1
                l(5) =   2
                l(6) =   2
     Q(r) pseudized with  3 coefficients,  rinner =    1.600   1.800   1.600
                                                       1.600   1.800

     atomic species   valence    mass     pseudopotential
        Au            11.00   196.96650     Au( 1.00)

     16 Sym. Ops., with inversion, found



   Cartesian axes

     site n.     atom                  positions (alat units)
         1           Au  tau(   1) = (   0.0000000   0.0000000   0.0000000  )
         2           Au  tau(   2) = (   0.0000000   0.0000000   0.2362158  )
         3           Au  tau(   3) = (   0.0000000   0.0000000   0.4724315  )
         4           Au  tau(   4) = (   0.0000000   0.0000000   0.7086473  )
         5           Au  tau(   5) = (   0.0000000   0.0000000   0.9448631  )
         6           Au  tau(   6) = (   0.0000000   0.0000000   1.1810788  )
         7           Au  tau(   7) = (   0.0000000   0.0000000   1.4172946  )
         8           Au  tau(   8) = (   0.0000000   0.0000000   1.6535104  )
         9           Au  tau(   9) = (   0.0000000   0.0000000   1.8897261  )
        10           Au  tau(  10) = (   0.0000000   0.0000000   2.1259419  )
        11           Au  tau(  11) = (   0.0000000   0.0000000   2.3621577  )
        12           Au  tau(  12) = (   0.0000000   0.0000000   2.5983734  )

     number of k points=     1  gaussian smearing, width (Ry)=  0.0100
                       cart. coord. in units 2pi/alat
        k(    1) = (   0.0000000   0.0000000   0.0000000), wk =   2.0000000

     Dense  grid:   541536 G-vectors     FFT dimensions: (  96,  96, 256)

     Smooth grid:   191449 G-vectors     FFT dimensions: (  64,  64, 192)

     Largest allocated arrays     est. size (Mb)     dimensions
        Kohn-Sham Wavefunctions         4.87 Mb     (    3992,   80)
        NL pseudopotentials            13.16 Mb     (    3992,  216)
        Each V/rho on FFT grid          6.05 Mb     (  396288)
        Each G-vector array             0.69 Mb     (   90258)
        G-vector shells                 0.26 Mb     (   33638)
     Largest temporary arrays     est. size (Mb)     dimensions
        Auxiliary wavefunctions         9.75 Mb     (    3992,  320)
        Each subspace H/S matrix        0.78 Mb     (     320,  320)
        Each <psi_i|beta_j> matrix      0.13 Mb     (     216,   80)

     The potential is recalculated from file :
     ./SCRATCH/gold_US.save/charge-density.dat


     negative rho (up, down):  1.159E-02 0.000E+00
     Starting wfc are  108 randomized atomic wfcs

     Band Structure Calculation
     Davidson diagonalization with overlap
     WARNING:     3 eigenvalues not converged in regterg
     WARNING:     2 eigenvalues not converged in regterg
     WARNING:     1 eigenvalues not converged in regterg
     WARNING:     2 eigenvalues not converged in regterg
     WARNING:     2 eigenvalues not converged in regterg

     ethr =  7.58E-12,  avg # of iterations =105.0

     total cpu time spent up to now is       40.2 secs

     End of band structure calculation

          k = 0.0000 0.0000 0.0000 ( 23962 PWs)   bands (ev):

   -10.8679 -10.5042 -10.5041  -9.4519  -9.4517  -8.5618  -8.5618  -8.4031
    -8.4031  -8.4030  -8.4030  -7.9414  -7.9414  -7.9414  -7.9414  -7.8685
    -7.8685  -7.2315  -7.2315  -7.2315  -7.2315  -6.8978  -6.8978  -6.8547
    -6.8547  -6.8546  -6.8546  -6.7367  -6.7366  -6.7358  -6.7357  -6.5721
    -6.5721  -6.5710  -6.5710  -6.5607  -6.4583  -6.4583  -6.4026  -6.4025
    -6.4012  -6.4012  -6.3832  -6.3832  -6.3831  -6.3831  -6.3439  -6.3437
    -6.2740  -6.2739  -6.2729  -6.2728  -6.2252  -6.2244  -6.1526  -6.1525
    -5.6353  -5.6352  -5.6067  -5.6067  -5.6009  -5.6009  -5.6008  -5.6008
    -5.4413  -5.2506  -5.2506  -4.4444  -4.4444  -2.2304  -2.2304  -1.2229
    -1.2229  -0.8887  -0.8887  -0.8887  -0.8887  -0.3485  -0.0870  -0.0870

     the Fermi energy is    -5.2479 ev

     Writing output data file gold_US.save
 
     init_run     :      6.75s CPU      6.88s WALL (       1 calls)
     electrons    :     32.80s CPU     33.10s WALL (       1 calls)

     Called by init_run:
     wfcinit      :      0.00s CPU      0.00s WALL (       1 calls)
     potinit      :      0.91s CPU      0.98s WALL (       1 calls)

     Called by electrons:
     c_bands      :     32.80s CPU     33.09s WALL (       1 calls)
     v_of_rho     :      0.62s CPU      0.68s WALL (       1 calls)
     newd         :      4.91s CPU      4.92s WALL (       1 calls)

     Called by c_bands:
     init_us_2    :      0.00s CPU      0.01s WALL (       1 calls)
     regterg      :     31.40s CPU     31.68s WALL (       6 calls)

     Called by *egterg:
     h_psi        :     23.42s CPU     23.55s WALL (     112 calls)
     s_psi        :      1.46s CPU      1.50s WALL (     112 calls)
     g_psi        :      0.17s CPU      0.17s WALL (     105 calls)
     rdiaghg      :      1.92s CPU      1.96s WALL (     106 calls)

     Called by h_psi:
     add_vuspsi   :      1.57s CPU      1.53s WALL (     112 calls)

     General routines
     calbec       :      1.41s CPU      1.50s WALL (     112 calls)
     fft          :      0.51s CPU      0.52s WALL (      12 calls)
     ffts         :      0.01s CPU      0.01s WALL (       1 calls)
     fftw         :     16.01s CPU     16.12s WALL (    2290 calls)
     interpolate  :      0.06s CPU      0.06s WALL (       1 calls)
 
     Parallel routines
     fft_scatter  :      5.87s CPU      5.90s WALL (    2303 calls)
 
     PWSCF        :    39.98s CPU        40.55s WALL

 
   This run was terminated on:  10:15: 9   2Aug2013            

=------------------------------------------------------------------------------=
   JOB DONE.
=------------------------------------------------------------------------------=
