
     Program PROJWFC v.5.0.2 (svn rev. 10303M) starts on  2Aug2013 at 10:15:10 

     This program is part of the open-source Quantum ESPRESSO suite
     for quantum simulation of materials; please cite
         "P. Giannozzi et al., J. Phys.:Condens. Matter 21 395502 (2009);
          URL http://www.quantum-espresso.org", 
     in publications or presentations arising from this work. More details at
     http://www.quantum-espresso.org/quote

     Parallel version (MPI & OpenMP), running on       6 processor cores
     Number of MPI processes:                 6
     Threads/MPI process:                     1
     R & G space division:  proc/nbgrp/npool/nimage =       6

   Info: using nr1, nr2, nr3 values from input

   Info: using nr1s, nr2s, nr3s values from input

     IMPORTANT: XC functional enforced from input :
     Exchange-correlation      =  SLA  PW   GGX  GGC ( 1 4 2 2 0)
     EXX-fraction              =        0.00
     Any further DFT definition will be discarded
     Please, verify this is what you really want

 
     Parallelization info
     --------------------
     sticks:   dense  smooth     PW     G-vecs:    dense   smooth      PW
     Min        1060     530    131               180508    63766    7981
     Max        1064     531    134               180516    63859    7998
     Sum        6369    3181    793              1083071   382897   47923
     Tot        3185    1591    397
 

     negative rho (up, down):  1.159E-02 0.000E+00

     Gaussian broadening (read from file): ngauss,degauss=   0    0.010000


     Calling projwave .... 
     gamma-point specific algorithms are used

     Atomic states used for projection
     (read from pseudopotential files):

     state #   1: atom   1 (Au ), wfc  1 (l=0 m= 1)
     state #   2: atom   1 (Au ), wfc  2 (l=1 m= 1)
     state #   3: atom   1 (Au ), wfc  2 (l=1 m= 2)
     state #   4: atom   1 (Au ), wfc  2 (l=1 m= 3)
     state #   5: atom   1 (Au ), wfc  3 (l=2 m= 1)
     state #   6: atom   1 (Au ), wfc  3 (l=2 m= 2)
     state #   7: atom   1 (Au ), wfc  3 (l=2 m= 3)
     state #   8: atom   1 (Au ), wfc  3 (l=2 m= 4)
     state #   9: atom   1 (Au ), wfc  3 (l=2 m= 5)
     state #  10: atom   2 (Au ), wfc  1 (l=0 m= 1)
     state #  11: atom   2 (Au ), wfc  2 (l=1 m= 1)
     state #  12: atom   2 (Au ), wfc  2 (l=1 m= 2)
     state #  13: atom   2 (Au ), wfc  2 (l=1 m= 3)
     state #  14: atom   2 (Au ), wfc  3 (l=2 m= 1)
     state #  15: atom   2 (Au ), wfc  3 (l=2 m= 2)
     state #  16: atom   2 (Au ), wfc  3 (l=2 m= 3)
     state #  17: atom   2 (Au ), wfc  3 (l=2 m= 4)
     state #  18: atom   2 (Au ), wfc  3 (l=2 m= 5)
     state #  19: atom   3 (Au ), wfc  1 (l=0 m= 1)
     state #  20: atom   3 (Au ), wfc  2 (l=1 m= 1)
     state #  21: atom   3 (Au ), wfc  2 (l=1 m= 2)
     state #  22: atom   3 (Au ), wfc  2 (l=1 m= 3)
     state #  23: atom   3 (Au ), wfc  3 (l=2 m= 1)
     state #  24: atom   3 (Au ), wfc  3 (l=2 m= 2)
     state #  25: atom   3 (Au ), wfc  3 (l=2 m= 3)
     state #  26: atom   3 (Au ), wfc  3 (l=2 m= 4)
     state #  27: atom   3 (Au ), wfc  3 (l=2 m= 5)
     state #  28: atom   4 (Au ), wfc  1 (l=0 m= 1)
     state #  29: atom   4 (Au ), wfc  2 (l=1 m= 1)
     state #  30: atom   4 (Au ), wfc  2 (l=1 m= 2)
     state #  31: atom   4 (Au ), wfc  2 (l=1 m= 3)
     state #  32: atom   4 (Au ), wfc  3 (l=2 m= 1)
     state #  33: atom   4 (Au ), wfc  3 (l=2 m= 2)
     state #  34: atom   4 (Au ), wfc  3 (l=2 m= 3)
     state #  35: atom   4 (Au ), wfc  3 (l=2 m= 4)
     state #  36: atom   4 (Au ), wfc  3 (l=2 m= 5)
     state #  37: atom   5 (Au ), wfc  1 (l=0 m= 1)
     state #  38: atom   5 (Au ), wfc  2 (l=1 m= 1)
     state #  39: atom   5 (Au ), wfc  2 (l=1 m= 2)
     state #  40: atom   5 (Au ), wfc  2 (l=1 m= 3)
     state #  41: atom   5 (Au ), wfc  3 (l=2 m= 1)
     state #  42: atom   5 (Au ), wfc  3 (l=2 m= 2)
     state #  43: atom   5 (Au ), wfc  3 (l=2 m= 3)
     state #  44: atom   5 (Au ), wfc  3 (l=2 m= 4)
     state #  45: atom   5 (Au ), wfc  3 (l=2 m= 5)
     state #  46: atom   6 (Au ), wfc  1 (l=0 m= 1)
     state #  47: atom   6 (Au ), wfc  2 (l=1 m= 1)
     state #  48: atom   6 (Au ), wfc  2 (l=1 m= 2)
     state #  49: atom   6 (Au ), wfc  2 (l=1 m= 3)
     state #  50: atom   6 (Au ), wfc  3 (l=2 m= 1)
     state #  51: atom   6 (Au ), wfc  3 (l=2 m= 2)
     state #  52: atom   6 (Au ), wfc  3 (l=2 m= 3)
     state #  53: atom   6 (Au ), wfc  3 (l=2 m= 4)
     state #  54: atom   6 (Au ), wfc  3 (l=2 m= 5)
     state #  55: atom   7 (Au ), wfc  1 (l=0 m= 1)
     state #  56: atom   7 (Au ), wfc  2 (l=1 m= 1)
     state #  57: atom   7 (Au ), wfc  2 (l=1 m= 2)
     state #  58: atom   7 (Au ), wfc  2 (l=1 m= 3)
     state #  59: atom   7 (Au ), wfc  3 (l=2 m= 1)
     state #  60: atom   7 (Au ), wfc  3 (l=2 m= 2)
     state #  61: atom   7 (Au ), wfc  3 (l=2 m= 3)
     state #  62: atom   7 (Au ), wfc  3 (l=2 m= 4)
     state #  63: atom   7 (Au ), wfc  3 (l=2 m= 5)
     state #  64: atom   8 (Au ), wfc  1 (l=0 m= 1)
     state #  65: atom   8 (Au ), wfc  2 (l=1 m= 1)
     state #  66: atom   8 (Au ), wfc  2 (l=1 m= 2)
     state #  67: atom   8 (Au ), wfc  2 (l=1 m= 3)
     state #  68: atom   8 (Au ), wfc  3 (l=2 m= 1)
     state #  69: atom   8 (Au ), wfc  3 (l=2 m= 2)
     state #  70: atom   8 (Au ), wfc  3 (l=2 m= 3)
     state #  71: atom   8 (Au ), wfc  3 (l=2 m= 4)
     state #  72: atom   8 (Au ), wfc  3 (l=2 m= 5)
     state #  73: atom   9 (Au ), wfc  1 (l=0 m= 1)
     state #  74: atom   9 (Au ), wfc  2 (l=1 m= 1)
     state #  75: atom   9 (Au ), wfc  2 (l=1 m= 2)
     state #  76: atom   9 (Au ), wfc  2 (l=1 m= 3)
     state #  77: atom   9 (Au ), wfc  3 (l=2 m= 1)
     state #  78: atom   9 (Au ), wfc  3 (l=2 m= 2)
     state #  79: atom   9 (Au ), wfc  3 (l=2 m= 3)
     state #  80: atom   9 (Au ), wfc  3 (l=2 m= 4)
     state #  81: atom   9 (Au ), wfc  3 (l=2 m= 5)
     state #  82: atom  10 (Au ), wfc  1 (l=0 m= 1)
     state #  83: atom  10 (Au ), wfc  2 (l=1 m= 1)
     state #  84: atom  10 (Au ), wfc  2 (l=1 m= 2)
     state #  85: atom  10 (Au ), wfc  2 (l=1 m= 3)
     state #  86: atom  10 (Au ), wfc  3 (l=2 m= 1)
     state #  87: atom  10 (Au ), wfc  3 (l=2 m= 2)
     state #  88: atom  10 (Au ), wfc  3 (l=2 m= 3)
     state #  89: atom  10 (Au ), wfc  3 (l=2 m= 4)
     state #  90: atom  10 (Au ), wfc  3 (l=2 m= 5)
     state #  91: atom  11 (Au ), wfc  1 (l=0 m= 1)
     state #  92: atom  11 (Au ), wfc  2 (l=1 m= 1)
     state #  93: atom  11 (Au ), wfc  2 (l=1 m= 2)
     state #  94: atom  11 (Au ), wfc  2 (l=1 m= 3)
     state #  95: atom  11 (Au ), wfc  3 (l=2 m= 1)
     state #  96: atom  11 (Au ), wfc  3 (l=2 m= 2)
     state #  97: atom  11 (Au ), wfc  3 (l=2 m= 3)
     state #  98: atom  11 (Au ), wfc  3 (l=2 m= 4)
     state #  99: atom  11 (Au ), wfc  3 (l=2 m= 5)
     state # 100: atom  12 (Au ), wfc  1 (l=0 m= 1)
     state # 101: atom  12 (Au ), wfc  2 (l=1 m= 1)
     state # 102: atom  12 (Au ), wfc  2 (l=1 m= 2)
     state # 103: atom  12 (Au ), wfc  2 (l=1 m= 3)
     state # 104: atom  12 (Au ), wfc  3 (l=2 m= 1)
     state # 105: atom  12 (Au ), wfc  3 (l=2 m= 2)
     state # 106: atom  12 (Au ), wfc  3 (l=2 m= 3)
     state # 107: atom  12 (Au ), wfc  3 (l=2 m= 4)
     state # 108: atom  12 (Au ), wfc  3 (l=2 m= 5)

 k =   0.0000000000  0.0000000000  0.0000000000
==== e(   1) =   -10.86794 eV ==== 
     psi = 0.062*[#   5]+0.062*[#  14]+0.062*[#  23]+0.062*[#  32]+0.062*[#  41]+
          +0.062*[#  50]+0.062*[#  59]+0.062*[#  68]+0.062*[#  77]+0.062*[#  86]+
          +0.062*[#  95]+0.062*[# 104]+0.021*[#   1]+0.021*[#  10]+0.021*[#  19]+
          +0.021*[#  28]+0.021*[#  37]+0.021*[#  46]+0.021*[#  55]+0.021*[#  64]+
          +0.021*[#  73]+0.021*[#  82]+0.021*[#  91]+0.021*[# 100]+
    |psi|^2 = 0.996
==== e(   2) =   -10.50423 eV ==== 
     psi = 0.091*[#  32]+0.091*[#  86]+0.077*[#  23]+0.077*[#  41]+0.077*[#  77]+
          +0.077*[#  95]+0.048*[#  14]+0.048*[#  50]+0.048*[#  68]+0.048*[# 104]+
          +0.033*[#   5]+0.033*[#  59]+0.028*[#  28]+0.028*[#  82]+0.024*[#  19]+
          +0.024*[#  37]+0.024*[#  73]+0.024*[#  91]+0.015*[#  10]+0.015*[#  46]+
          +0.015*[#  64]+0.015*[# 100]+0.010*[#   1]+0.010*[#  55]+0.003*[#   2]+
          +0.003*[#  56]+0.002*[#  11]+0.002*[#  47]+0.002*[#  65]+0.002*[# 101]+
          +0.001*[#  20]+0.001*[#  38]+0.001*[#  74]+0.001*[#  92]+
    |psi|^2 = 0.998
==== e(   3) =   -10.50411 eV ==== 
     psi = 0.091*[#   5]+0.091*[#  59]+0.077*[#  14]+0.077*[#  50]+0.077*[#  68]+
          +0.077*[# 104]+0.048*[#  23]+0.048*[#  41]+0.048*[#  77]+0.048*[#  95]+
          +0.033*[#  32]+0.033*[#  86]+0.028*[#   1]+0.028*[#  55]+0.024*[#  10]+
          +0.024*[#  46]+0.024*[#  64]+0.024*[# 100]+0.015*[#  19]+0.015*[#  37]+
          +0.015*[#  73]+0.015*[#  91]+0.010*[#  28]+0.010*[#  82]+0.003*[#  29]+
          +0.003*[#  83]+0.002*[#  20]+0.002*[#  38]+0.002*[#  74]+0.002*[#  92]+
          +0.001*[#  11]+0.001*[#  47]+0.001*[#  65]+0.001*[# 101]+
    |psi|^2 = 0.998
==== e(   4) =    -9.45195 eV ==== 
     psi = 0.096*[#  14]+0.096*[#  23]+0.096*[#  41]+0.096*[#  50]+0.096*[#  68]+
          +0.096*[#  77]+0.096*[#  95]+0.096*[# 104]+0.021*[#  10]+0.021*[#  19]+
          +0.021*[#  37]+0.021*[#  46]+0.021*[#  64]+0.021*[#  73]+0.021*[#  91]+
          +0.021*[# 100]+0.010*[#   2]+0.010*[#  29]+0.010*[#  56]+0.010*[#  83]+
          +0.003*[#  11]+0.003*[#  20]+0.003*[#  38]+0.003*[#  47]+0.003*[#  65]+
          +0.003*[#  74]+0.003*[#  92]+0.003*[# 101]+
    |psi|^2 = 0.997
==== e(   5) =    -9.45172 eV ==== 
     psi = 0.128*[#   5]+0.128*[#  32]+0.128*[#  59]+0.128*[#  86]+0.032*[#  14]+
          +0.032*[#  23]+0.032*[#  41]+0.032*[#  50]+0.032*[#  68]+0.032*[#  77]+
          +0.032*[#  95]+0.032*[# 104]+0.028*[#   1]+0.028*[#  28]+0.028*[#  55]+
          +0.028*[#  82]+0.008*[#  11]+0.008*[#  20]+0.008*[#  38]+0.008*[#  47]+
          +0.008*[#  65]+0.008*[#  74]+0.008*[#  92]+0.008*[# 101]+0.007*[#  10]+
          +0.007*[#  19]+0.007*[#  37]+0.007*[#  46]+0.007*[#  64]+0.007*[#  73]+
          +0.007*[#  91]+0.007*[# 100]+
    |psi|^2 = 0.997
==== e(   6) =    -8.56181 eV ==== 
     psi = 0.042*[#   6]+0.042*[#   7]+0.042*[#  15]+0.042*[#  16]+0.042*[#  24]+
          +0.042*[#  25]+0.042*[#  33]+0.042*[#  34]+0.042*[#  42]+0.042*[#  43]+
          +0.042*[#  51]+0.042*[#  52]+0.042*[#  60]+0.042*[#  61]+0.042*[#  69]+
          +0.042*[#  70]+0.042*[#  78]+0.042*[#  79]+0.042*[#  87]+0.042*[#  88]+
          +0.042*[#  96]+0.042*[#  97]+0.042*[# 105]+0.042*[# 106]+
    |psi|^2 = 0.999
==== e(   7) =    -8.56181 eV ==== 
     psi = 0.042*[#   6]+0.042*[#   7]+0.042*[#  15]+0.042*[#  16]+0.042*[#  24]+
          +0.042*[#  25]+0.042*[#  33]+0.042*[#  34]+0.042*[#  42]+0.042*[#  43]+
          +0.042*[#  51]+0.042*[#  52]+0.042*[#  60]+0.042*[#  61]+0.042*[#  69]+
          +0.042*[#  70]+0.042*[#  78]+0.042*[#  79]+0.042*[#  87]+0.042*[#  88]+
          +0.042*[#  96]+0.042*[#  97]+0.042*[# 105]+0.042*[# 106]+
    |psi|^2 = 0.999
==== e(   8) =    -8.40307 eV ==== 
     psi = 0.060*[#  33]+0.060*[#  34]+0.060*[#  87]+0.060*[#  88]+0.051*[#  24]+
          +0.051*[#  25]+0.051*[#  42]+0.051*[#  43]+0.051*[#  78]+0.051*[#  79]+
          +0.051*[#  96]+0.051*[#  97]+0.032*[#  15]+0.032*[#  16]+0.032*[#  51]+
          +0.032*[#  52]+0.032*[#  69]+0.032*[#  70]+0.032*[# 105]+0.032*[# 106]+
          +0.023*[#  60]+0.023*[#  61]+0.023*[#   6]+0.023*[#   7]+
    |psi|^2 = 0.999
==== e(   9) =    -8.40307 eV ==== 
     psi = 0.060*[#  33]+0.060*[#  34]+0.060*[#  87]+0.060*[#  88]+0.051*[#  24]+
          +0.051*[#  25]+0.051*[#  42]+0.051*[#  43]+0.051*[#  78]+0.051*[#  79]+
          +0.051*[#  96]+0.051*[#  97]+0.032*[#  15]+0.032*[#  16]+0.032*[#  51]+
          +0.032*[#  52]+0.032*[#  69]+0.032*[#  70]+0.032*[# 105]+0.032*[# 106]+
          +0.023*[#  60]+0.023*[#  61]+0.023*[#   6]+0.023*[#   7]+
    |psi|^2 = 0.999
==== e(  10) =    -8.40296 eV ==== 
     psi = 0.060*[#   6]+0.060*[#   7]+0.060*[#  60]+0.060*[#  61]+0.051*[#  15]+
          +0.051*[#  16]+0.051*[# 105]+0.051*[# 106]+0.051*[#  51]+0.051*[#  52]+
          +0.051*[#  69]+0.051*[#  70]+0.032*[#  24]+0.032*[#  25]+0.032*[#  42]+
          +0.032*[#  43]+0.032*[#  78]+0.032*[#  79]+0.032*[#  96]+0.032*[#  97]+
          +0.023*[#  33]+0.023*[#  34]+0.023*[#  87]+0.023*[#  88]+
    |psi|^2 = 0.999
==== e(  11) =    -8.40296 eV ==== 
     psi = 0.060*[#   6]+0.060*[#   7]+0.060*[#  60]+0.060*[#  61]+0.051*[#  15]+
          +0.051*[#  16]+0.051*[# 105]+0.051*[# 106]+0.051*[#  51]+0.051*[#  52]+
          +0.051*[#  69]+0.051*[#  70]+0.032*[#  24]+0.032*[#  25]+0.032*[#  42]+
          +0.032*[#  43]+0.032*[#  78]+0.032*[#  79]+0.032*[#  96]+0.032*[#  97]+
          +0.023*[#  33]+0.023*[#  34]+0.023*[#  87]+0.023*[#  88]+
    |psi|^2 = 0.999
==== e(  12) =    -7.94141 eV ==== 
     psi = 0.049*[#   6]+0.049*[#   7]+0.049*[#  33]+0.049*[#  34]+0.049*[#  60]+
          +0.049*[#  61]+0.049*[#  87]+0.049*[#  88]+0.037*[#  15]+0.037*[#  16]+
          +0.037*[#  24]+0.037*[#  25]+0.037*[#  42]+0.037*[#  43]+0.037*[#  51]+
          +0.037*[#  52]+0.037*[#  69]+0.037*[#  70]+0.037*[#  78]+0.037*[#  79]+
          +0.037*[#  96]+0.037*[#  97]+0.037*[# 105]+0.037*[# 106]+
    |psi|^2 = 0.999
==== e(  13) =    -7.94141 eV ==== 
     psi = 0.050*[#   6]+0.050*[#   7]+0.050*[#  33]+0.050*[#  34]+0.050*[#  60]+
          +0.050*[#  61]+0.050*[#  87]+0.050*[#  88]+0.037*[#  15]+0.037*[#  16]+
          +0.037*[#  24]+0.037*[#  25]+0.037*[#  42]+0.037*[#  43]+0.037*[#  51]+
          +0.037*[#  52]+0.037*[#  69]+0.037*[#  70]+0.037*[#  78]+0.037*[#  79]+
          +0.037*[#  96]+0.037*[#  97]+0.037*[# 105]+0.037*[# 106]+
    |psi|^2 = 0.999
==== e(  14) =    -7.94140 eV ==== 
     psi = 0.045*[#  15]+0.045*[#  16]+0.045*[#  24]+0.045*[#  25]+0.045*[#  42]+
          +0.045*[#  43]+0.045*[#  51]+0.045*[#  52]+0.045*[#  69]+0.045*[#  70]+
          +0.045*[#  78]+0.045*[#  79]+0.045*[#  96]+0.045*[#  97]+0.045*[# 105]+
          +0.045*[# 106]+0.032*[#   6]+0.032*[#   7]+0.033*[#  33]+0.033*[#  34]+
          +0.033*[#  60]+0.033*[#  61]+0.033*[#  87]+0.033*[#  88]+
    |psi|^2 = 0.999
==== e(  15) =    -7.94140 eV ==== 
     psi = 0.045*[#  15]+0.045*[#  16]+0.045*[#  24]+0.045*[#  25]+0.045*[#  42]+
          +0.045*[#  43]+0.045*[#  51]+0.045*[#  52]+0.045*[#  69]+0.045*[#  70]+
          +0.045*[#  78]+0.045*[#  79]+0.045*[#  96]+0.045*[#  97]+0.045*[# 105]+
          +0.045*[# 106]+0.032*[#   6]+0.032*[#   7]+0.032*[#  33]+0.032*[#  34]+
          +0.032*[#  60]+0.032*[#  61]+0.032*[#  87]+0.032*[#  88]+
    |psi|^2 = 0.999
==== e(  16) =    -7.86855 eV ==== 
     psi = 0.073*[#  14]+0.073*[#  32]+0.073*[#  50]+0.073*[#  68]+0.073*[#  86]+
          +0.073*[# 104]+0.070*[#   5]+0.070*[#  23]+0.070*[#  41]+0.070*[#  59]+
          +0.070*[#  77]+0.070*[#  95]+0.006*[#   2]+0.006*[#  20]+0.006*[#  38]+
          +0.006*[#  56]+0.006*[#  74]+0.006*[#  92]+0.006*[#  11]+0.006*[#  29]+
          +0.006*[#  47]+0.006*[#  65]+0.006*[#  10]+0.006*[#  83]+0.006*[# 101]+
          +0.006*[#  28]+0.006*[#  46]+0.006*[#  64]+0.006*[#  82]+0.006*[# 100]+
          +0.005*[#   1]+0.005*[#  19]+0.005*[#  37]+0.005*[#  55]+0.005*[#  73]+
          +0.005*[#  91]+
    |psi|^2 = 0.994
==== e(  17) =    -7.86854 eV ==== 
     psi = 0.073*[#   5]+0.073*[#  23]+0.073*[#  41]+0.073*[#  59]+0.073*[#  77]+
          +0.073*[#  95]+0.070*[#  14]+0.070*[#  32]+0.070*[#  50]+0.070*[#  68]+
          +0.070*[#  86]+0.070*[# 104]+0.006*[#  11]+0.006*[#  29]+0.006*[#  47]+
          +0.006*[#  65]+0.006*[#  83]+0.006*[# 101]+0.006*[#   1]+0.006*[#   2]+
          +0.006*[#  20]+0.006*[#  38]+0.006*[#  56]+0.006*[#  74]+0.006*[#  92]+
          +0.006*[#  19]+0.006*[#  37]+0.006*[#  55]+0.006*[#  73]+0.006*[#  91]+
          +0.005*[#  10]+0.005*[#  28]+0.005*[#  46]+0.005*[#  64]+0.005*[#  82]+
          +0.005*[# 100]+
    |psi|^2 = 0.994
==== e(  18) =    -7.23153 eV ==== 
     psi = 0.042*[#  15]+0.042*[#  16]+0.042*[#  33]+0.042*[#  34]+0.042*[#  51]+
          +0.042*[#  52]+0.042*[#  69]+0.042*[#  70]+0.042*[#  87]+0.042*[#  88]+
          +0.042*[# 105]+0.042*[# 106]+0.039*[#   6]+0.039*[#   7]+0.039*[#  24]+
          +0.039*[#  25]+0.039*[#  42]+0.039*[#  43]+0.039*[#  60]+0.039*[#  61]+
          +0.039*[#  78]+0.039*[#  79]+0.039*[#  96]+0.039*[#  97]+0.001*[#   3]+
          +0.001*[#   4]+0.001*[#  12]+0.001*[#  13]+0.001*[#  21]+0.001*[#  22]+
          +0.001*[#  30]+0.001*[#  31]+0.001*[#  39]+0.001*[#  40]+0.001*[#  48]+
          +0.001*[#  49]+0.001*[#  57]+0.001*[#  58]+0.001*[#  66]+0.001*[#  67]+
          +0.001*[#  75]+0.001*[#  76]+0.001*[#  84]+0.001*[#  85]+0.001*[#  93]+
          +0.001*[#  94]+0.001*[# 102]+0.001*[# 103]+
    |psi|^2 = 0.997
==== e(  19) =    -7.23153 eV ==== 
     psi = 0.042*[#  15]+0.042*[#  16]+0.042*[#  33]+0.042*[#  34]+0.042*[#  51]+
          +0.042*[#  52]+0.042*[#  69]+0.042*[#  70]+0.042*[#  87]+0.042*[#  88]+
          +0.042*[# 105]+0.042*[# 106]+0.039*[#   6]+0.039*[#   7]+0.039*[#  24]+
          +0.039*[#  25]+0.039*[#  42]+0.039*[#  43]+0.039*[#  60]+0.039*[#  61]+
          +0.039*[#  78]+0.039*[#  79]+0.039*[#  96]+0.039*[#  97]+0.001*[#   3]+
          +0.001*[#   4]+0.001*[#  12]+0.001*[#  13]+0.001*[#  21]+0.001*[#  22]+
          +0.001*[#  30]+0.001*[#  31]+0.001*[#  39]+0.001*[#  40]+0.001*[#  48]+
          +0.001*[#  49]+0.001*[#  57]+0.001*[#  58]+0.001*[#  66]+0.001*[#  67]+
          +0.001*[#  75]+0.001*[#  76]+0.001*[#  84]+0.001*[#  85]+0.001*[#  93]+
          +0.001*[#  94]+0.001*[# 102]+0.001*[# 103]+
    |psi|^2 = 0.997
==== e(  20) =    -7.23153 eV ==== 
     psi = 0.042*[#   6]+0.042*[#   7]+0.042*[#  24]+0.042*[#  25]+0.042*[#  42]+
          +0.042*[#  43]+0.042*[#  60]+0.042*[#  61]+0.042*[#  78]+0.042*[#  79]+
          +0.042*[#  96]+0.042*[#  97]+0.039*[#  15]+0.039*[#  16]+0.039*[#  33]+
          +0.039*[#  34]+0.039*[#  51]+0.039*[#  52]+0.039*[#  69]+0.039*[#  70]+
          +0.039*[#  87]+0.039*[#  88]+0.039*[# 105]+0.039*[# 106]+0.001*[#   3]+
          +0.001*[#   4]+0.001*[#  12]+0.001*[#  13]+0.001*[#  21]+0.001*[#  22]+
          +0.001*[#  30]+0.001*[#  31]+0.001*[#  39]+0.001*[#  40]+0.001*[#  48]+
          +0.001*[#  49]+0.001*[#  57]+0.001*[#  58]+0.001*[#  66]+0.001*[#  67]+
          +0.001*[#  75]+0.001*[#  76]+0.001*[#  84]+0.001*[#  85]+0.001*[#  93]+
          +0.001*[#  94]+0.001*[# 102]+0.001*[# 103]+
    |psi|^2 = 0.997
==== e(  21) =    -7.23153 eV ==== 
     psi = 0.042*[#   6]+0.042*[#   7]+0.042*[#  24]+0.042*[#  25]+0.042*[#  42]+
          +0.042*[#  43]+0.042*[#  60]+0.042*[#  61]+0.042*[#  78]+0.042*[#  79]+
          +0.042*[#  96]+0.042*[#  97]+0.039*[#  15]+0.039*[#  16]+0.039*[#  33]+
          +0.039*[#  34]+0.039*[#  51]+0.039*[#  52]+0.039*[#  69]+0.039*[#  70]+
          +0.039*[#  87]+0.039*[#  88]+0.039*[# 105]+0.039*[# 106]+0.001*[#   3]+
          +0.001*[#   4]+0.001*[#  12]+0.001*[#  13]+0.001*[#  21]+0.001*[#  22]+
          +0.001*[#  30]+0.001*[#  31]+0.001*[#  39]+0.001*[#  40]+0.001*[#  48]+
          +0.001*[#  49]+0.001*[#  57]+0.001*[#  58]+0.001*[#  66]+0.001*[#  67]+
          +0.001*[#  75]+0.001*[#  76]+0.001*[#  84]+0.001*[#  85]+0.001*[#  93]+
          +0.001*[#  94]+0.001*[# 102]+0.001*[# 103]+
    |psi|^2 = 0.997
==== e(  22) =    -6.89781 eV ==== 
     psi = 0.083*[#  35]+0.083*[#  44]+0.083*[#  53]+0.083*[#  62]+0.083*[#  71]+
          +0.083*[#  80]+0.083*[#  89]+0.083*[#  26]+0.083*[#  98]+0.083*[#   8]+
          +0.083*[#  17]+0.083*[# 107]+
    |psi|^2 = 0.999
==== e(  23) =    -6.89780 eV ==== 
     psi = 0.083*[#  45]+0.083*[#  54]+0.083*[#  63]+0.083*[#  72]+0.083*[#  81]+
          +0.083*[#  27]+0.083*[#  36]+0.083*[#  90]+0.083*[#  99]+0.083*[#  18]+
          +0.083*[# 108]+0.083*[#   9]+
    |psi|^2 = 0.999
==== e(  24) =    -6.85469 eV ==== 
     psi = 0.119*[#  36]+0.119*[#  90]+0.101*[#  27]+0.101*[#  45]+0.101*[#  81]+
          +0.101*[#  99]+0.066*[#  54]+0.066*[#  72]+0.065*[#  18]+0.065*[# 108]+
          +0.048*[#  63]+0.047*[#   9]+
    |psi|^2 = 0.999
==== e(  25) =    -6.85467 eV ==== 
     psi = 0.119*[#  35]+0.119*[#  89]+0.101*[#  26]+0.101*[#  44]+0.101*[#  80]+
          +0.101*[#  98]+0.066*[#  53]+0.066*[#  71]+0.065*[#  17]+0.065*[# 107]+
          +0.048*[#  62]+0.047*[#   8]+
    |psi|^2 = 0.999
==== e(  26) =    -6.85459 eV ==== 
     psi = 0.119*[#   9]+0.118*[#  63]+0.101*[#  18]+0.101*[# 108]+0.101*[#  54]+
          +0.101*[#  72]+0.066*[#  27]+0.066*[#  99]+0.065*[#  45]+0.065*[#  81]+
          +0.048*[#  36]+0.048*[#  90]+
    |psi|^2 = 0.999
==== e(  27) =    -6.85457 eV ==== 
     psi = 0.119*[#   8]+0.118*[#  62]+0.101*[#  17]+0.101*[# 107]+0.101*[#  53]+
          +0.101*[#  71]+0.066*[#  26]+0.066*[#  98]+0.065*[#  44]+0.065*[#  80]+
          +0.048*[#  35]+0.048*[#  89]+
    |psi|^2 = 0.999
==== e(  28) =    -6.73673 eV ==== 
     psi = 0.124*[#  18]+0.124*[#  27]+0.124*[#  45]+0.124*[#  54]+0.124*[#  72]+
          +0.124*[#  81]+0.124*[#  99]+0.124*[# 108]+0.001*[#   9]+0.001*[#  36]+
          +0.001*[#  63]+0.001*[#  90]+
    |psi|^2 = 0.999
==== e(  29) =    -6.73662 eV ==== 
     psi = 0.165*[#   9]+0.165*[#  36]+0.165*[#  63]+0.165*[#  90]+0.042*[#  18]+
          +0.042*[# 108]+0.042*[#  27]+0.042*[#  45]+0.042*[#  54]+0.042*[#  72]+
          +0.042*[#  81]+0.042*[#  99]+
    |psi|^2 = 0.999
==== e(  30) =    -6.73577 eV ==== 
     psi = 0.135*[#   8]+0.135*[#  35]+0.135*[#  89]+0.135*[#  62]+0.058*[#  44]+
          +0.058*[#  17]+0.058*[#  53]+0.058*[#  71]+0.058*[#  80]+0.058*[# 107]+
          +0.057*[#  26]+0.057*[#  98]+
    |psi|^2 = 0.999
==== e(  31) =    -6.73574 eV ==== 
     psi = 0.109*[#  17]+0.109*[#  26]+0.109*[#  98]+0.109*[# 107]+0.109*[#  44]+
          +0.109*[#  53]+0.109*[#  71]+0.109*[#  80]+0.032*[#  62]+0.032*[#  35]+
          +0.032*[#  89]+0.032*[#   8]+
    |psi|^2 = 0.999
==== e(  32) =    -6.57207 eV ==== 
     psi = 0.096*[#  18]+0.096*[# 108]+0.096*[#  36]+0.096*[#  90]+0.096*[#  54]+
          +0.096*[#  72]+0.071*[#  45]+0.071*[#  63]+0.071*[#  81]+0.071*[#  27]+
          +0.071*[#  99]+0.070*[#   9]+
    |psi|^2 = 0.999
==== e(  33) =    -6.57207 eV ==== 
     psi = 0.096*[#   9]+0.096*[#  27]+0.096*[#  99]+0.096*[#  45]+0.096*[#  63]+
          +0.096*[#  81]+0.071*[#  36]+0.071*[#  54]+0.071*[#  72]+0.071*[#  90]+
          +0.070*[#  18]+0.070*[# 108]+
    |psi|^2 = 0.999
==== e(  34) =    -6.57105 eV ==== 
     psi = 0.096*[#  17]+0.096*[# 107]+0.096*[#  35]+0.096*[#  53]+0.096*[#  71]+
          +0.096*[#  89]+0.071*[#  44]+0.071*[#  62]+0.071*[#  80]+0.071*[#  26]+
          +0.071*[#  98]+0.071*[#   8]+
    |psi|^2 = 0.999
==== e(  35) =    -6.57105 eV ==== 
     psi = 0.096*[#   8]+0.096*[#  26]+0.096*[#  98]+0.096*[#  44]+0.096*[#  62]+
          +0.096*[#  80]+0.071*[#  35]+0.071*[#  53]+0.071*[#  71]+0.071*[#  89]+
          +0.071*[#  17]+0.071*[# 107]+
    |psi|^2 = 0.999
==== e(  36) =    -6.56071 eV ==== 
     psi = 0.062*[#   1]+0.062*[#  10]+0.062*[#  19]+0.062*[#  28]+0.062*[#  37]+
          +0.062*[#  46]+0.062*[#  55]+0.062*[#  64]+0.062*[#  73]+0.062*[#  82]+
          +0.062*[#  91]+0.062*[# 100]+0.021*[#   5]+0.021*[#  14]+0.021*[#  23]+
          +0.021*[#  32]+0.021*[#  41]+0.021*[#  50]+0.021*[#  59]+0.021*[#  68]+
          +0.021*[#  77]+0.021*[#  86]+0.021*[#  95]+0.021*[# 104]+
    |psi|^2 = 1.000
==== e(  37) =    -6.45834 eV ==== 
     psi = 0.075*[#  28]+0.075*[#  82]+0.064*[#  19]+0.064*[#  37]+0.064*[#  73]+
          +0.064*[#  91]+0.042*[#  46]+0.042*[#  64]+0.041*[#  10]+0.041*[# 100]+
          +0.030*[#  55]+0.030*[#   1]+0.030*[#  32]+0.030*[#  86]+0.025*[#  23]+
          +0.025*[#  41]+0.025*[#  77]+0.025*[#  95]+0.016*[#  14]+0.016*[#  50]+
          +0.016*[#  68]+0.016*[# 104]+0.014*[#   2]+0.014*[#  56]+0.012*[#  59]+
          +0.012*[#   5]+0.012*[#  11]+0.012*[#  47]+0.012*[#  65]+0.012*[# 101]+
          +0.008*[#  20]+0.008*[#  38]+0.008*[#  74]+0.008*[#  92]+0.006*[#  29]+
          +0.006*[#  83]+
    |psi|^2 = 1.000
==== e(  38) =    -6.45825 eV ==== 
     psi = 0.076*[#   1]+0.075*[#  55]+0.064*[#  10]+0.064*[# 100]+0.064*[#  46]+
          +0.064*[#  64]+0.042*[#  19]+0.041*[#  37]+0.041*[#  73]+0.042*[#  91]+
          +0.030*[#  28]+0.030*[#  82]+0.030*[#   5]+0.030*[#  59]+0.025*[#  14]+
          +0.025*[#  50]+0.025*[#  68]+0.025*[# 104]+0.016*[#  23]+0.016*[#  41]+
          +0.016*[#  77]+0.016*[#  95]+0.014*[#  29]+0.014*[#  83]+0.012*[#  32]+
          +0.012*[#  86]+0.012*[#  20]+0.012*[#  38]+0.012*[#  74]+0.012*[#  92]+
          +0.008*[#  11]+0.008*[#  47]+0.008*[#  65]+0.008*[# 101]+0.006*[#   2]+
          +0.006*[#  56]+
    |psi|^2 = 1.000
==== e(  39) =    -6.40264 eV ==== 
     psi = 0.124*[#  18]+0.124*[#  27]+0.124*[#  45]+0.124*[#  54]+0.124*[#  72]+
          +0.124*[#  81]+0.124*[#  99]+0.124*[# 108]+0.002*[#   9]+0.002*[#  36]+
          +0.002*[#  63]+0.002*[#  90]+
    |psi|^2 = 1.000
==== e(  40) =    -6.40254 eV ==== 
     psi = 0.165*[#   9]+0.165*[#  36]+0.165*[#  63]+0.165*[#  90]+0.043*[#  27]+
          +0.043*[#  45]+0.043*[#  54]+0.043*[#  72]+0.043*[#  99]+0.043*[#  18]+
          +0.043*[#  81]+0.043*[# 108]+
    |psi|^2 = 1.000
==== e(  41) =    -6.40119 eV ==== 
     psi = 0.139*[#  35]+0.139*[#  62]+0.139*[#  89]+0.139*[#   8]+0.056*[#  17]+
          +0.056*[#  26]+0.056*[#  98]+0.055*[#  44]+0.055*[#  53]+0.055*[#  71]+
          +0.055*[#  80]+0.056*[# 107]+
    |psi|^2 = 1.000
==== e(  42) =    -6.40116 eV ==== 
     psi = 0.111*[#  44]+0.111*[#  53]+0.111*[#  71]+0.111*[#  80]+0.111*[#  17]+
          +0.111*[#  26]+0.111*[#  98]+0.111*[# 107]+0.028*[#   8]+0.028*[#  35]+
          +0.028*[#  89]+0.028*[#  62]+
    |psi|^2 = 1.000
==== e(  43) =    -6.38316 eV ==== 
     psi = 0.048*[#  15]+0.048*[#  16]+0.048*[#  24]+0.048*[#  25]+0.048*[#  42]+
          +0.048*[#  43]+0.048*[#  51]+0.048*[#  52]+0.048*[#  69]+0.048*[#  70]+
          +0.048*[#  78]+0.048*[#  79]+0.048*[#  96]+0.048*[#  97]+0.048*[# 105]+
          +0.048*[# 106]+0.024*[#   6]+0.024*[#   7]+0.024*[#  33]+0.024*[#  34]+
          +0.024*[#  60]+0.024*[#  61]+0.024*[#  87]+0.024*[#  88]+0.002*[#   3]+
          +0.002*[#   4]+0.002*[#  30]+0.002*[#  31]+0.002*[#  57]+0.002*[#  58]+
          +0.002*[#  84]+0.002*[#  85]+0.001*[#  12]+0.001*[#  13]+0.001*[#  21]+
          +0.001*[#  22]+0.001*[#  39]+0.001*[#  40]+0.001*[#  48]+0.001*[#  49]+
          +0.001*[#  66]+0.001*[#  67]+0.001*[#  75]+0.001*[#  76]+0.001*[#  93]+
          +0.001*[#  94]+0.001*[# 102]+0.001*[# 103]+
    |psi|^2 = 0.996
==== e(  44) =    -6.38316 eV ==== 
     psi = 0.048*[#  15]+0.048*[#  16]+0.048*[#  24]+0.048*[#  25]+0.048*[#  42]+
          +0.048*[#  43]+0.048*[#  51]+0.048*[#  52]+0.048*[#  69]+0.048*[#  70]+
          +0.048*[#  78]+0.048*[#  79]+0.048*[#  96]+0.048*[#  97]+0.048*[# 105]+
          +0.048*[# 106]+0.024*[#   6]+0.024*[#   7]+0.024*[#  33]+0.024*[#  34]+
          +0.024*[#  60]+0.024*[#  61]+0.024*[#  87]+0.024*[#  88]+0.002*[#   3]+
          +0.002*[#   4]+0.002*[#  30]+0.002*[#  31]+0.002*[#  57]+0.002*[#  58]+
          +0.002*[#  84]+0.002*[#  85]+0.001*[#  12]+0.001*[#  13]+0.001*[#  21]+
          +0.001*[#  22]+0.001*[#  39]+0.001*[#  40]+0.001*[#  48]+0.001*[#  49]+
          +0.001*[#  66]+0.001*[#  67]+0.001*[#  75]+0.001*[#  76]+0.001*[#  93]+
          +0.001*[#  94]+0.001*[# 102]+0.001*[# 103]+
    |psi|^2 = 0.996
==== e(  45) =    -6.38313 eV ==== 
     psi = 0.056*[#   6]+0.056*[#   7]+0.056*[#  33]+0.056*[#  34]+0.056*[#  60]+
          +0.056*[#  61]+0.056*[#  87]+0.056*[#  88]+0.032*[#  15]+0.032*[#  16]+
          +0.032*[#  24]+0.032*[#  25]+0.032*[#  42]+0.032*[#  43]+0.032*[#  51]+
          +0.032*[#  52]+0.032*[#  69]+0.032*[#  70]+0.032*[#  78]+0.032*[#  79]+
          +0.032*[#  96]+0.032*[#  97]+0.032*[# 105]+0.032*[# 106]+0.002*[#  12]+
          +0.002*[#  13]+0.002*[#  21]+0.002*[#  22]+0.002*[#  39]+0.002*[#  40]+
          +0.002*[#  48]+0.002*[#  49]+0.002*[#  66]+0.002*[#  67]+0.002*[#  75]+
          +0.002*[#  76]+0.002*[#  93]+0.002*[#  94]+0.002*[# 102]+0.002*[# 103]+
    |psi|^2 = 0.996
==== e(  46) =    -6.38313 eV ==== 
     psi = 0.056*[#   6]+0.056*[#   7]+0.056*[#  33]+0.056*[#  34]+0.056*[#  60]+
          +0.056*[#  61]+0.056*[#  87]+0.056*[#  88]+0.032*[#  15]+0.032*[#  16]+
          +0.032*[#  24]+0.032*[#  25]+0.032*[#  42]+0.032*[#  43]+0.032*[#  51]+
          +0.032*[#  52]+0.032*[#  69]+0.032*[#  70]+0.032*[#  78]+0.032*[#  79]+
          +0.032*[#  96]+0.032*[#  97]+0.032*[# 105]+0.032*[# 106]+0.002*[#  12]+
          +0.002*[#  13]+0.002*[#  21]+0.002*[#  22]+0.002*[#  39]+0.002*[#  40]+
          +0.002*[#  48]+0.002*[#  49]+0.002*[#  66]+0.002*[#  67]+0.002*[#  75]+
          +0.002*[#  76]+0.002*[#  93]+0.002*[#  94]+0.002*[# 102]+0.002*[# 103]+
    |psi|^2 = 0.996
==== e(  47) =    -6.34393 eV ==== 
     psi = 0.122*[#  14]+0.122*[#  23]+0.122*[#  41]+0.122*[#  50]+0.122*[#  68]+
          +0.122*[#  77]+0.122*[#  95]+0.122*[# 104]+0.001*[#   2]+0.001*[#  10]+
          +0.001*[#  19]+0.001*[#  29]+0.001*[#  37]+0.001*[#  46]+0.001*[#  56]+
          +0.001*[#  64]+0.001*[#  73]+0.001*[#  83]+0.001*[#  91]+0.001*[# 100]+
    |psi|^2 = 0.995
==== e(  48) =    -6.34374 eV ==== 
     psi = 0.162*[#   5]+0.162*[#  32]+0.162*[#  59]+0.162*[#  86]+0.041*[#  14]+
          +0.041*[#  23]+0.041*[#  41]+0.041*[#  50]+0.041*[#  68]+0.041*[#  77]+
          +0.041*[#  95]+0.041*[# 104]+0.002*[#   1]+0.002*[#  28]+0.002*[#  55]+
          +0.002*[#  82]+0.001*[#  11]+0.001*[#  20]+0.001*[#  38]+0.001*[#  47]+
          +0.001*[#  65]+0.001*[#  74]+0.001*[#  92]+0.001*[# 101]+
    |psi|^2 = 0.995
==== e(  49) =    -6.27396 eV ==== 
     psi = 0.119*[#  36]+0.119*[#  90]+0.101*[#  27]+0.101*[#  45]+0.101*[#  81]+
          +0.101*[#  99]+0.066*[#  18]+0.066*[# 108]+0.065*[#  54]+0.065*[#  72]+
          +0.049*[#   9]+0.048*[#  63]+
    |psi|^2 = 1.000
==== e(  50) =    -6.27386 eV ==== 
     psi = 0.119*[#  63]+0.118*[#   9]+0.101*[#  54]+0.101*[#  72]+0.101*[#  18]+
          +0.101*[# 108]+0.066*[#  45]+0.066*[#  81]+0.066*[#  27]+0.066*[#  99]+
          +0.048*[#  36]+0.048*[#  90]+
    |psi|^2 = 1.000
==== e(  51) =    -6.27292 eV ==== 
     psi = 0.118*[#  35]+0.118*[#  89]+0.101*[#  26]+0.101*[#  44]+0.101*[#  80]+
          +0.101*[#  98]+0.066*[#  17]+0.066*[# 107]+0.065*[#  53]+0.065*[#  71]+
          +0.049*[#   8]+0.048*[#  62]+
    |psi|^2 = 1.000
==== e(  52) =    -6.27281 eV ==== 
     psi = 0.119*[#  62]+0.118*[#   8]+0.101*[#  53]+0.101*[#  71]+0.101*[#  17]+
          +0.101*[# 107]+0.066*[#  44]+0.066*[#  80]+0.066*[#  26]+0.066*[#  98]+
          +0.048*[#  35]+0.048*[#  89]+
    |psi|^2 = 1.000
==== e(  53) =    -6.22523 eV ==== 
     psi = 0.084*[#   9]+0.083*[#  18]+0.083*[#  27]+0.083*[#  36]+0.083*[#  90]+
          +0.083*[#  99]+0.083*[#  81]+0.083*[# 108]+0.083*[#  45]+0.083*[#  54]+
          +0.083*[#  63]+0.083*[#  72]+
    |psi|^2 = 1.000
==== e(  54) =    -6.22436 eV ==== 
     psi = 0.084*[#   8]+0.083*[#  17]+0.083*[#  26]+0.083*[# 107]+0.083*[#  35]+
          +0.083*[#  98]+0.083*[#  44]+0.083*[#  53]+0.083*[#  62]+0.083*[#  71]+
          +0.083*[#  80]+0.083*[#  89]+
    |psi|^2 = 1.000
==== e(  55) =    -6.15258 eV ==== 
     psi = 0.065*[#  10]+0.065*[#  19]+0.065*[#  37]+0.065*[#  46]+0.065*[#  64]+
          +0.065*[#  73]+0.065*[#  91]+0.065*[# 100]+0.041*[#   2]+0.041*[#  29]+
          +0.041*[#  56]+0.041*[#  83]+0.028*[#  14]+0.028*[#  23]+0.028*[#  41]+
          +0.028*[#  50]+0.028*[#  68]+0.028*[#  77]+0.028*[#  95]+0.028*[# 104]+
          +0.011*[#  11]+0.011*[#  20]+0.011*[#  38]+0.011*[#  47]+0.011*[#  65]+
          +0.011*[#  74]+0.011*[#  92]+0.011*[# 101]+
    |psi|^2 = 0.999
==== e(  56) =    -6.15251 eV ==== 
     psi = 0.086*[#   1]+0.086*[#  28]+0.086*[#  55]+0.086*[#  82]+0.038*[#   5]+
          +0.038*[#  32]+0.038*[#  59]+0.038*[#  86]+0.031*[#  11]+0.031*[#  20]+
          +0.031*[#  38]+0.031*[#  47]+0.031*[#  65]+0.031*[#  74]+0.031*[#  92]+
          +0.031*[# 101]+0.022*[#  10]+0.022*[#  19]+0.022*[#  37]+0.022*[#  46]+
          +0.022*[#  64]+0.022*[#  73]+0.022*[#  91]+0.022*[# 100]+0.010*[#  14]+
          +0.010*[#  23]+0.010*[#  41]+0.010*[#  50]+0.010*[#  68]+0.010*[#  77]+
          +0.010*[#  95]+0.010*[# 104]+
    |psi|^2 = 0.999
==== e(  57) =    -5.63529 eV ==== 
     psi = 0.102*[#  32]+0.102*[#  86]+0.088*[#  23]+0.088*[#  41]+0.088*[#  77]+
          +0.088*[#  95]+0.059*[#  14]+0.059*[# 104]+0.058*[#  50]+0.058*[#  68]+
          +0.044*[#   5]+0.044*[#  59]+0.014*[#  28]+0.014*[#  82]+0.012*[#  19]+
          +0.012*[#  37]+0.012*[#  73]+0.012*[#  91]+0.008*[#  10]+0.008*[#  46]+
          +0.008*[#  64]+0.008*[# 100]+0.006*[#   1]+0.006*[#  55]+
    |psi|^2 = 0.999
==== e(  58) =    -5.63520 eV ==== 
     psi = 0.102*[#  59]+0.102*[#   5]+0.088*[#  50]+0.088*[#  68]+0.088*[#  14]+
          +0.088*[# 104]+0.058*[#  23]+0.058*[#  41]+0.058*[#  77]+0.058*[#  95]+
          +0.044*[#  32]+0.044*[#  86]+0.014*[#   1]+0.014*[#  55]+0.012*[#  10]+
          +0.012*[#  46]+0.012*[#  64]+0.012*[# 100]+0.008*[#  19]+0.008*[#  37]+
          +0.008*[#  73]+0.008*[#  91]+0.006*[#  28]+0.006*[#  82]+
    |psi|^2 = 0.999
==== e(  59) =    -5.60672 eV ==== 
     psi = 0.047*[#  10]+0.047*[#  28]+0.047*[#  46]+0.047*[#  64]+0.047*[#  82]+
          +0.047*[# 100]+0.039*[#   1]+0.039*[#  19]+0.039*[#  37]+0.039*[#  55]+
          +0.039*[#  73]+0.039*[#  91]+0.032*[#   2]+0.032*[#  20]+0.032*[#  38]+
          +0.032*[#  56]+0.032*[#  74]+0.032*[#  92]+0.026*[#  11]+0.026*[#  29]+
          +0.026*[#  47]+0.026*[#  65]+0.026*[#  83]+0.026*[# 101]+0.013*[#  14]+
          +0.013*[#  32]+0.013*[#  50]+0.013*[#  68]+0.013*[#  86]+0.013*[# 104]+
          +0.011*[#   5]+0.010*[#  23]+0.010*[#  41]+0.011*[#  59]+0.010*[#  77]+
          +0.010*[#  95]+
    |psi|^2 = 0.997
==== e(  60) =    -5.60671 eV ==== 
     psi = 0.047*[#   1]+0.047*[#  19]+0.047*[#  37]+0.047*[#  55]+0.047*[#  73]+
          +0.047*[#  91]+0.039*[#  10]+0.039*[#  46]+0.039*[#  64]+0.039*[#  28]+
          +0.039*[#  82]+0.039*[# 100]+0.032*[#  11]+0.032*[#  29]+0.032*[#  47]+
          +0.032*[#  65]+0.032*[#  83]+0.032*[# 101]+0.026*[#   2]+0.026*[#  20]+
          +0.026*[#  38]+0.026*[#  56]+0.026*[#  74]+0.026*[#  92]+0.013*[#   5]+
          +0.013*[#  23]+0.013*[#  41]+0.013*[#  59]+0.013*[#  77]+0.013*[#  95]+
          +0.011*[#  14]+0.011*[#  50]+0.011*[#  68]+0.011*[# 104]+0.010*[#  32]+
          +0.010*[#  86]+
    |psi|^2 = 0.997
==== e(  61) =    -5.60087 eV ==== 
     psi = 0.057*[#  33]+0.057*[#  34]+0.057*[#  87]+0.057*[#  88]+0.049*[#  24]+
          +0.049*[#  25]+0.049*[#  42]+0.049*[#  43]+0.049*[#  78]+0.049*[#  79]+
          +0.049*[#  96]+0.049*[#  97]+0.033*[#  15]+0.033*[#  16]+0.033*[#  51]+
          +0.033*[#  52]+0.033*[#  69]+0.033*[#  70]+0.033*[# 105]+0.033*[# 106]+
          +0.025*[#   6]+0.025*[#   7]+0.025*[#  60]+0.025*[#  61]+0.001*[#   3]+
          +0.001*[#   4]+0.001*[#  57]+0.001*[#  58]+
    |psi|^2 = 0.998
==== e(  62) =    -5.60087 eV ==== 
     psi = 0.057*[#  33]+0.057*[#  34]+0.057*[#  87]+0.057*[#  88]+0.049*[#  24]+
          +0.049*[#  25]+0.049*[#  42]+0.049*[#  43]+0.049*[#  78]+0.049*[#  79]+
          +0.049*[#  96]+0.049*[#  97]+0.033*[#  15]+0.033*[#  16]+0.033*[#  51]+
          +0.033*[#  52]+0.033*[#  69]+0.033*[#  70]+0.033*[# 105]+0.033*[# 106]+
          +0.025*[#   6]+0.025*[#   7]+0.025*[#  60]+0.025*[#  61]+0.001*[#   3]+
          +0.001*[#   4]+0.001*[#  57]+0.001*[#  58]+
    |psi|^2 = 0.998
==== e(  63) =    -5.60077 eV ==== 
     psi = 0.057*[#   6]+0.057*[#   7]+0.057*[#  60]+0.057*[#  61]+0.049*[#  15]+
          +0.049*[#  16]+0.049*[#  51]+0.049*[#  52]+0.049*[#  69]+0.049*[#  70]+
          +0.049*[# 105]+0.049*[# 106]+0.033*[#  24]+0.033*[#  25]+0.033*[#  42]+
          +0.033*[#  43]+0.033*[#  78]+0.033*[#  79]+0.033*[#  96]+0.033*[#  97]+
          +0.025*[#  33]+0.025*[#  34]+0.025*[#  87]+0.025*[#  88]+0.001*[#  30]+
          +0.001*[#  31]+0.001*[#  84]+0.001*[#  85]+
    |psi|^2 = 0.998
==== e(  64) =    -5.60077 eV ==== 
     psi = 0.057*[#   6]+0.057*[#   7]+0.057*[#  60]+0.057*[#  61]+0.049*[#  15]+
          +0.049*[#  16]+0.049*[#  51]+0.049*[#  52]+0.049*[#  69]+0.049*[#  70]+
          +0.049*[# 105]+0.049*[# 106]+0.033*[#  24]+0.033*[#  25]+0.033*[#  42]+
          +0.033*[#  43]+0.033*[#  78]+0.033*[#  79]+0.033*[#  96]+0.033*[#  97]+
          +0.025*[#  33]+0.025*[#  34]+0.025*[#  87]+0.025*[#  88]+0.001*[#  30]+
          +0.001*[#  31]+0.001*[#  84]+0.001*[#  85]+
    |psi|^2 = 0.998
==== e(  65) =    -5.44128 eV ==== 
     psi = 0.070*[#   5]+0.070*[#  14]+0.070*[#  23]+0.070*[#  32]+0.070*[#  41]+
          +0.070*[#  50]+0.070*[#  59]+0.070*[#  68]+0.070*[#  77]+0.070*[#  86]+
          +0.070*[#  95]+0.070*[# 104]+0.013*[#   1]+0.013*[#  10]+0.013*[#  19]+
          +0.013*[#  28]+0.013*[#  37]+0.013*[#  46]+0.013*[#  55]+0.013*[#  64]+
          +0.013*[#  73]+0.013*[#  82]+0.013*[#  91]+0.013*[# 100]+
    |psi|^2 = 1.000
==== e(  66) =    -5.25065 eV ==== 
     psi = 0.042*[#   6]+0.042*[#   7]+0.042*[#  15]+0.042*[#  16]+0.042*[#  24]+
          +0.042*[#  25]+0.042*[#  33]+0.042*[#  34]+0.042*[#  42]+0.042*[#  43]+
          +0.042*[#  51]+0.042*[#  52]+0.042*[#  60]+0.042*[#  61]+0.042*[#  69]+
          +0.042*[#  70]+0.042*[#  78]+0.042*[#  79]+0.042*[#  87]+0.042*[#  88]+
          +0.042*[#  96]+0.042*[#  97]+0.042*[# 105]+0.042*[# 106]+
    |psi|^2 = 1.000
==== e(  67) =    -5.25065 eV ==== 
     psi = 0.042*[#   6]+0.042*[#   7]+0.042*[#  15]+0.042*[#  16]+0.042*[#  24]+
          +0.042*[#  25]+0.042*[#  33]+0.042*[#  34]+0.042*[#  42]+0.042*[#  43]+
          +0.042*[#  51]+0.042*[#  52]+0.042*[#  60]+0.042*[#  61]+0.042*[#  69]+
          +0.042*[#  70]+0.042*[#  78]+0.042*[#  79]+0.042*[#  87]+0.042*[#  88]+
          +0.042*[#  96]+0.042*[#  97]+0.042*[# 105]+0.042*[# 106]+
    |psi|^2 = 1.000
==== e(  68) =    -4.44441 eV ==== 
     psi = 0.083*[#   2]+0.083*[#  29]+0.083*[#  56]+0.083*[#  83]+0.061*[#  10]+
          +0.061*[#  19]+0.061*[#  37]+0.061*[#  46]+0.061*[#  64]+0.061*[#  73]+
          +0.061*[#  91]+0.061*[# 100]+0.021*[#  11]+0.021*[#  20]+0.021*[#  38]+
          +0.021*[#  47]+0.021*[#  65]+0.021*[#  74]+0.021*[#  92]+0.021*[# 101]+
    |psi|^2 = 0.988
==== e(  69) =    -4.44439 eV ==== 
     psi = 0.081*[#   1]+0.081*[#  28]+0.081*[#  55]+0.081*[#  82]+0.062*[#  11]+
          +0.062*[#  20]+0.062*[#  38]+0.062*[#  47]+0.062*[#  65]+0.062*[#  74]+
          +0.062*[#  92]+0.062*[# 101]+0.021*[#  10]+0.021*[#  19]+0.021*[#  37]+
          +0.021*[#  46]+0.021*[#  64]+0.021*[#  73]+0.021*[#  91]+0.021*[# 100]+
    |psi|^2 = 0.988
==== e(  70) =    -2.23044 eV ==== 
     psi = 0.077*[#  29]+0.077*[#  83]+0.066*[#  20]+0.066*[#  38]+0.066*[#  74]+
          +0.066*[#  92]+0.043*[#  11]+0.043*[#  47]+0.043*[#  65]+0.043*[# 101]+
          +0.034*[#   1]+0.034*[#  55]+0.031*[#   2]+0.031*[#  56]+0.029*[#  10]+
          +0.029*[#  46]+0.029*[#  64]+0.029*[# 100]+0.019*[#  19]+0.019*[#  37]+
          +0.019*[#  73]+0.019*[#  91]+0.014*[#  28]+0.014*[#  82]+0.006*[#   5]+
          +0.006*[#  59]+0.005*[#  14]+0.005*[#  50]+0.005*[#  68]+0.005*[# 104]+
          +0.003*[#  23]+0.003*[#  41]+0.003*[#  77]+0.003*[#  95]+0.002*[#  32]+
          +0.002*[#  86]+
    |psi|^2 = 0.987
==== e(  71) =    -2.23041 eV ==== 
     psi = 0.077*[#   2]+0.077*[#  56]+0.066*[#  11]+0.066*[#  47]+0.066*[#  65]+
          +0.066*[# 101]+0.043*[#  20]+0.043*[#  38]+0.043*[#  74]+0.043*[#  92]+
          +0.034*[#  28]+0.034*[#  82]+0.031*[#  29]+0.031*[#  83]+0.029*[#  19]+
          +0.029*[#  37]+0.029*[#  73]+0.029*[#  91]+0.019*[#  10]+0.019*[#  46]+
          +0.019*[#  64]+0.019*[# 100]+0.014*[#   1]+0.014*[#  55]+0.006*[#  32]+
          +0.006*[#  86]+0.005*[#  23]+0.005*[#  41]+0.005*[#  77]+0.005*[#  95]+
          +0.003*[#  14]+0.003*[#  50]+0.003*[#  68]+0.003*[# 104]+0.002*[#   5]+
          +0.002*[#  59]+
    |psi|^2 = 0.987
==== e(  72) =    -1.22287 eV ==== 
     psi = 0.040*[#   3]+0.040*[#   4]+0.040*[#  12]+0.040*[#  13]+0.040*[#  21]+
          +0.040*[#  22]+0.040*[#  30]+0.040*[#  31]+0.040*[#  39]+0.040*[#  40]+
          +0.040*[#  48]+0.040*[#  49]+0.040*[#  57]+0.040*[#  58]+0.040*[#  66]+
          +0.040*[#  67]+0.040*[#  75]+0.040*[#  76]+0.040*[#  84]+0.040*[#  85]+
          +0.040*[#  93]+0.040*[#  94]+0.040*[# 102]+0.040*[# 103]+
    |psi|^2 = 0.964
==== e(  73) =    -1.22287 eV ==== 
     psi = 0.040*[#   3]+0.040*[#   4]+0.040*[#  12]+0.040*[#  13]+0.040*[#  21]+
          +0.040*[#  22]+0.040*[#  30]+0.040*[#  31]+0.040*[#  39]+0.040*[#  40]+
          +0.040*[#  48]+0.040*[#  49]+0.040*[#  57]+0.040*[#  58]+0.040*[#  66]+
          +0.040*[#  67]+0.040*[#  75]+0.040*[#  76]+0.040*[#  84]+0.040*[#  85]+
          +0.040*[#  93]+0.040*[#  94]+0.040*[# 102]+0.040*[# 103]+
    |psi|^2 = 0.964
==== e(  74) =    -0.88872 eV ==== 
     psi = 0.056*[#  30]+0.056*[#  31]+0.056*[#  84]+0.056*[#  85]+0.048*[#  21]+
          +0.048*[#  22]+0.048*[#  39]+0.048*[#  40]+0.048*[#  75]+0.048*[#  76]+
          +0.048*[#  93]+0.048*[#  94]+0.031*[#  12]+0.031*[#  13]+0.031*[#  48]+
          +0.031*[#  49]+0.031*[#  66]+0.031*[#  67]+0.031*[# 102]+0.031*[# 103]+
          +0.023*[#   3]+0.023*[#   4]+0.023*[#  57]+0.023*[#  58]+0.001*[#   6]+
          +0.001*[#   7]+0.001*[#  60]+0.001*[#  61]+0.001*[#  15]+0.001*[#  16]+
          +0.001*[#  51]+0.001*[#  52]+0.001*[#  69]+0.001*[#  70]+0.001*[# 105]+
          +0.001*[# 106]+
    |psi|^2 = 0.972
==== e(  75) =    -0.88872 eV ==== 
     psi = 0.056*[#  30]+0.056*[#  31]+0.056*[#  84]+0.056*[#  85]+0.048*[#  21]+
          +0.048*[#  22]+0.048*[#  39]+0.048*[#  40]+0.048*[#  75]+0.048*[#  76]+
          +0.048*[#  93]+0.048*[#  94]+0.031*[#  12]+0.031*[#  13]+0.031*[#  48]+
          +0.031*[#  49]+0.031*[#  66]+0.031*[#  67]+0.031*[# 102]+0.031*[# 103]+
          +0.023*[#   3]+0.023*[#   4]+0.023*[#  57]+0.023*[#  58]+0.001*[#   6]+
          +0.001*[#   7]+0.001*[#  60]+0.001*[#  61]+0.001*[#  15]+0.001*[#  16]+
          +0.001*[#  51]+0.001*[#  52]+0.001*[#  69]+0.001*[#  70]+0.001*[# 105]+
          +0.001*[# 106]+
    |psi|^2 = 0.972
==== e(  76) =    -0.88867 eV ==== 
     psi = 0.056*[#   3]+0.056*[#   4]+0.056*[#  57]+0.056*[#  58]+0.048*[#  12]+
          +0.048*[#  13]+0.048*[#  48]+0.048*[#  49]+0.048*[#  66]+0.048*[#  67]+
          +0.048*[# 102]+0.048*[# 103]+0.031*[#  21]+0.031*[#  22]+0.031*[#  39]+
          +0.031*[#  40]+0.031*[#  75]+0.031*[#  76]+0.031*[#  93]+0.031*[#  94]+
          +0.023*[#  30]+0.023*[#  31]+0.023*[#  84]+0.023*[#  85]+0.001*[#  33]+
          +0.001*[#  34]+0.001*[#  87]+0.001*[#  88]+0.001*[#  24]+0.001*[#  25]+
          +0.001*[#  42]+0.001*[#  43]+0.001*[#  78]+0.001*[#  79]+0.001*[#  96]+
          +0.001*[#  97]+
    |psi|^2 = 0.972
==== e(  77) =    -0.88867 eV ==== 
     psi = 0.056*[#   3]+0.056*[#   4]+0.056*[#  57]+0.056*[#  58]+0.048*[#  12]+
          +0.048*[#  13]+0.048*[#  48]+0.048*[#  49]+0.048*[#  66]+0.048*[#  67]+
          +0.048*[# 102]+0.048*[# 103]+0.031*[#  21]+0.031*[#  22]+0.031*[#  39]+
          +0.031*[#  40]+0.031*[#  75]+0.031*[#  76]+0.031*[#  93]+0.031*[#  94]+
          +0.023*[#  30]+0.023*[#  31]+0.023*[#  84]+0.023*[#  85]+0.001*[#  33]+
          +0.001*[#  34]+0.001*[#  87]+0.001*[#  88]+0.001*[#  24]+0.001*[#  25]+
          +0.001*[#  42]+0.001*[#  43]+0.001*[#  78]+0.001*[#  79]+0.001*[#  96]+
          +0.001*[#  97]+
    |psi|^2 = 0.972
==== e(  78) =    -0.34849 eV ==== 
     psi = 0.082*[#   2]+0.082*[#  11]+0.082*[#  20]+0.082*[#  29]+0.082*[#  38]+
          +0.082*[#  47]+0.082*[#  56]+0.082*[#  65]+0.082*[#  74]+0.082*[#  83]+
          +0.082*[#  92]+0.082*[# 101]+
    |psi|^2 = 0.988
==== e(  79) =    -0.08703 eV ==== 
     psi = 0.059*[#  12]+0.059*[#  13]+0.059*[#  21]+0.059*[#  22]+0.059*[#  39]+
          +0.059*[#  40]+0.059*[#  48]+0.059*[#  49]+0.059*[#  66]+0.059*[#  67]+
          +0.059*[#  75]+0.059*[#  76]+0.059*[#  93]+0.059*[#  94]+0.059*[# 102]+
          +0.059*[# 103]+0.003*[#   6]+0.003*[#   7]+0.003*[#  33]+0.003*[#  34]+
          +0.003*[#  60]+0.003*[#  61]+0.003*[#  87]+0.003*[#  88]+
    |psi|^2 = 0.985
==== e(  80) =    -0.08703 eV ==== 
     psi = 0.059*[#  12]+0.059*[#  13]+0.059*[#  21]+0.059*[#  22]+0.059*[#  39]+
          +0.059*[#  40]+0.059*[#  48]+0.059*[#  49]+0.059*[#  66]+0.059*[#  67]+
          +0.059*[#  75]+0.059*[#  76]+0.059*[#  93]+0.059*[#  94]+0.059*[# 102]+
          +0.059*[# 103]+0.003*[#   6]+0.003*[#   7]+0.003*[#  33]+0.003*[#  34]+
          +0.003*[#  60]+0.003*[#  61]+0.003*[#  87]+0.003*[#  88]+
    |psi|^2 = 0.985

Lowdin Charges: 

     Atom #   1: total charge =  10.9834, s =  0.9464, p =  0.3596, d =  9.6774, 
     Atom #   2: total charge =  10.9835, s =  0.9465, p =  0.3596, d =  9.6775, 
     Atom #   3: total charge =  10.9836, s =  0.9465, p =  0.3596, d =  9.6775, 
     Atom #   4: total charge =  10.9835, s =  0.9465, p =  0.3596, d =  9.6775, 
     Atom #   5: total charge =  10.9836, s =  0.9465, p =  0.3596, d =  9.6775, 
     Atom #   6: total charge =  10.9836, s =  0.9465, p =  0.3596, d =  9.6775, 
     Atom #   7: total charge =  10.9836, s =  0.9464, p =  0.3596, d =  9.6775, 
     Atom #   8: total charge =  10.9836, s =  0.9465, p =  0.3596, d =  9.6775, 
     Atom #   9: total charge =  10.9836, s =  0.9465, p =  0.3596, d =  9.6775, 
     Atom #  10: total charge =  10.9835, s =  0.9465, p =  0.3596, d =  9.6775, 
     Atom #  11: total charge =  10.9836, s =  0.9465, p =  0.3596, d =  9.6775, 
     Atom #  12: total charge =  10.9835, s =  0.9465, p =  0.3596, d =  9.6775, 
     Spilling Parameter:   0.0015
