
     Program PWSCF v.5.0.2 (svn rev. 10303M) starts on  2Aug2013 at 16: 0:14 

     This program is part of the open-source Quantum ESPRESSO suite
     for quantum simulation of materials; please cite
         "P. Giannozzi et al., J. Phys.:Condens. Matter 21 395502 (2009);
          URL http://www.quantum-espresso.org", 
     in publications or presentations arising from this work. More details at
     http://www.quantum-espresso.org/quote

     Parallel version (MPI & OpenMP), running on       6 processor cores
     Number of MPI processes:                 6
     Threads/MPI process:                     1
     R & G space division:  proc/nbgrp/npool/nimage =       6
     Reading input from /home/ferretti/devel/want/tests/test18/scf_H2_gamma.in

     Current dimensions of program PWSCF are:
     Max number of different atomic species (ntypx) = 10
     Max number of k-points (npk) =  40000
     Max angular momentum in pseudopotentials (lmaxx) =  3
               file H.pz-vbc.UPF: wavefunction(s)  1S renormalized

     gamma-point specific algorithms are used

     Subspace diagonalization in iterative solution of the eigenvalue problem:
     a serial algorithm will be used

     Found symmetry operation: I + (  0.0000  0.0000  0.1000)
     This is a supercell, fractional translations are disabled
 
     Parallelization info
     --------------------
     sticks:   dense  smooth     PW     G-vecs:    dense   smooth      PW
     Min         847     847    212               113883   113883   14246
     Max         854     854    215               113890   113890   14250
     Sum        5097    5097   1281               683313   683313   85485
     Tot        2549    2549    641
 


     bravais-lattice index     =            8
     lattice parameter (alat)  =      20.0000  a.u.
     unit-cell volume          =   20000.0000 (a.u.)^3
     number of atoms/cell      =           20
     number of atomic types    =            1
     number of electrons       =        20.00
     number of Kohn-Sham states=           20
     kinetic-energy cutoff     =      40.0000  Ry
     charge density cutoff     =     160.0000  Ry
     convergence threshold     =      1.0E-08
     mixing beta               =       0.3000
     number of iterations used =            8  plain     mixing
     Exchange-correlation      =  SLA  PZ   NOGX NOGC ( 1 1 0 0 0)
     EXX-fraction              =        0.00

     celldm(1)=  20.000000  celldm(2)=   1.000000  celldm(3)=   2.500000
     celldm(4)=   0.000000  celldm(5)=   0.000000  celldm(6)=   0.000000

     crystal axes: (cart. coord. in units of alat)
               a(1) = (   1.000000   0.000000   0.000000 )  
               a(2) = (   0.000000   1.000000   0.000000 )  
               a(3) = (   0.000000   0.000000   2.500000 )  

     reciprocal axes: (cart. coord. in units 2 pi/alat)
               b(1) = (  1.000000  0.000000  0.000000 )  
               b(2) = (  0.000000  1.000000  0.000000 )  
               b(3) = (  0.000000  0.000000  0.400000 )  


     PseudoPot. # 1 for H  read from file:
     ../pseudo/H.pz-vbc.UPF
     MD5 check sum: 90becb985b714f09656c73597998d266
     Pseudo is Norm-conserving, Zval =  1.0
     Generated by new atomic code, or converted to UPF format
     Using radial grid of  131 points,  0 beta functions with: 

     atomic species   valence    mass     pseudopotential
        H              1.00     1.00800     H ( 1.00)

      8 Sym. Ops. (no inversion) found



   Cartesian axes

     site n.     atom                  positions (alat units)
         1           H   tau(   1) = (   0.0000000   0.0000000   0.0000000  )
         2           H   tau(   2) = (   0.0000000   0.0000000   0.1000000  )
         3           H   tau(   3) = (   0.0000000   0.0000000   0.2500000  )
         4           H   tau(   4) = (   0.0000000   0.0000000   0.3500000  )
         5           H   tau(   5) = (   0.0000000   0.0000000   0.5000000  )
         6           H   tau(   6) = (   0.0000000   0.0000000   0.6000000  )
         7           H   tau(   7) = (   0.0000000   0.0000000   0.7500000  )
         8           H   tau(   8) = (   0.0000000   0.0000000   0.8500000  )
         9           H   tau(   9) = (   0.0000000   0.0000000   1.0000000  )
        10           H   tau(  10) = (   0.0000000   0.0000000   1.1000000  )
        11           H   tau(  11) = (   0.0000000   0.0000000   1.2500000  )
        12           H   tau(  12) = (   0.0000000   0.0000000   1.3500000  )
        13           H   tau(  13) = (   0.0000000   0.0000000   1.5000000  )
        14           H   tau(  14) = (   0.0000000   0.0000000   1.6000000  )
        15           H   tau(  15) = (   0.0000000   0.0000000   1.7500000  )
        16           H   tau(  16) = (   0.0000000   0.0000000   1.8500000  )
        17           H   tau(  17) = (   0.0000000   0.0000000   2.0000000  )
        18           H   tau(  18) = (   0.0000000   0.0000000   2.1000000  )
        19           H   tau(  19) = (   0.0000000   0.0000000   2.2500000  )
        20           H   tau(  20) = (   0.0000000   0.0000000   2.3500000  )

     number of k points=     1
                       cart. coord. in units 2pi/alat
        k(    1) = (   0.0000000   0.0000000   0.0000000), wk =   2.0000000

     Dense  grid:   341657 G-vectors     FFT dimensions: (  81,  81, 216)

     Largest allocated arrays     est. size (Mb)     dimensions
        Kohn-Sham Wavefunctions         2.17 Mb     (    7124,   20)
        NL pseudopotentials             0.00 Mb     (    7124,    0)
        Each V/rho on FFT grid          3.60 Mb     (  236196)
        Each G-vector array             0.43 Mb     (   56945)
        G-vector shells                 0.07 Mb     (    9815)
     Largest temporary arrays     est. size (Mb)     dimensions
        Auxiliary wavefunctions         4.35 Mb     (    7124,   80)
        Each subspace H/S matrix        0.05 Mb     (      80,   80)
        Each <psi_i|beta_j> matrix      0.00 Mb     (       0,   20)
        Arrays for rho mixing          28.83 Mb     (  236196,    8)

     Initial potential from superposition of free atoms
     Check: negative starting charge=   -0.016698

     starting charge   19.99947, renormalised to   20.00000

     negative rho (up, down):  1.670E-02 0.000E+00
     Starting wfc are   20 randomized atomic wfcs

     total cpu time spent up to now is        0.8 secs

     per-process dynamical memory:    38.7 Mb

     Self-consistent Calculation

     iteration #  1     ecut=    40.00 Ry     beta=0.30
     Davidson diagonalization with overlap
     ethr =  1.00E-02,  avg # of iterations =  6.0

     negative rho (up, down):  1.150E-02 0.000E+00

     total cpu time spent up to now is        2.7 secs

     total energy              =     -22.20198229 Ry
     Harris-Foulkes estimate   =     -22.29502359 Ry
     estimated scf accuracy    <       0.37714838 Ry

     iteration #  2     ecut=    40.00 Ry     beta=0.30
     Davidson diagonalization with overlap
     ethr =  1.89E-03,  avg # of iterations =  1.0

     negative rho (up, down):  1.917E-03 0.000E+00

     total cpu time spent up to now is        3.7 secs

     total energy              =     -22.13444946 Ry
     Harris-Foulkes estimate   =     -22.20633524 Ry
     estimated scf accuracy    <       0.14935370 Ry

     iteration #  3     ecut=    40.00 Ry     beta=0.30
     Davidson diagonalization with overlap
     ethr =  7.47E-04,  avg # of iterations =  3.0

     negative rho (up, down):  1.572E-03 0.000E+00

     total cpu time spent up to now is        4.8 secs

     total energy              =     -22.14813510 Ry
     Harris-Foulkes estimate   =     -22.14813713 Ry
     estimated scf accuracy    <       0.00022099 Ry

     iteration #  4     ecut=    40.00 Ry     beta=0.30
     Davidson diagonalization with overlap
     WARNING:     1 eigenvalues not converged in regterg
     c_bands:  1 eigenvalues not converged
     ethr =  1.10E-06,  avg # of iterations = 20.0

     negative rho (up, down):  2.696E-04 0.000E+00

     total cpu time spent up to now is        7.5 secs

     total energy              =     -22.14836059 Ry
     Harris-Foulkes estimate   =     -22.14825386 Ry
     estimated scf accuracy    <       0.00010998 Ry

     iteration #  5     ecut=    40.00 Ry     beta=0.30
     Davidson diagonalization with overlap
     ethr =  5.50E-07,  avg # of iterations =  3.0

     negative rho (up, down):  4.424E-06 0.000E+00

     total cpu time spent up to now is        8.7 secs

     total energy              =     -22.14833193 Ry
     Harris-Foulkes estimate   =     -22.14836460 Ry
     estimated scf accuracy    <       0.00008940 Ry

     iteration #  6     ecut=    40.00 Ry     beta=0.30
     Davidson diagonalization with overlap
     ethr =  4.47E-07,  avg # of iterations =  3.0

     negative rho (up, down):  2.184E-06 0.000E+00

     total cpu time spent up to now is        9.9 secs

     total energy              =     -22.14833865 Ry
     Harris-Foulkes estimate   =     -22.14833830 Ry
     estimated scf accuracy    <       0.00000266 Ry

     iteration #  7     ecut=    40.00 Ry     beta=0.30
     Davidson diagonalization with overlap
     ethr =  1.33E-08,  avg # of iterations =  2.0

     negative rho (up, down):  1.193E-06 0.000E+00

     total cpu time spent up to now is       11.0 secs

     total energy              =     -22.14833885 Ry
     Harris-Foulkes estimate   =     -22.14833884 Ry
     estimated scf accuracy    <       0.00000019 Ry

     iteration #  8     ecut=    40.00 Ry     beta=0.30
     Davidson diagonalization with overlap
     ethr =  9.42E-10,  avg # of iterations =  1.0

     negative rho (up, down):  1.430E-07 0.000E+00

     total cpu time spent up to now is       12.0 secs

     total energy              =     -22.14833888 Ry
     Harris-Foulkes estimate   =     -22.14833886 Ry
     estimated scf accuracy    <       0.00000012 Ry

     iteration #  9     ecut=    40.00 Ry     beta=0.30
     Davidson diagonalization with overlap
     ethr =  5.77E-10,  avg # of iterations =  1.0

     total cpu time spent up to now is       13.0 secs

     End of self-consistent calculation

          k = 0.0000 0.0000 0.0000 ( 42743 PWs)   bands (ev):

   -10.9203 -10.7241 -10.7241 -10.1440 -10.1440  -9.2129  -9.2129  -8.0648
    -8.0648  -7.3488  -3.5721  -2.4664  -2.4664  -0.1874  -0.1874  -0.0683
     0.0552   0.0554   0.1437   0.1437

     highest occupied, lowest unoccupied level (ev):    -7.3488   -3.5721

!    total energy              =     -22.14833889 Ry
     Harris-Foulkes estimate   =     -22.14833889 Ry
     estimated scf accuracy    <          8.4E-09 Ry

     The total energy is the sum of the following terms:

     one-electron contribution =     -44.51502654 Ry
     hartree contribution      =      22.97459933 Ry
     xc contribution           =     -11.75548008 Ry
     ewald contribution        =      11.14756839 Ry

     convergence has been achieved in   9 iterations

     Forces acting on atoms (Ry/au):

     atom    1 type  1   force =     0.00000000    0.00000000    0.13346224
     atom    2 type  1   force =     0.00000000    0.00000000   -0.13346200
     atom    3 type  1   force =     0.00000000    0.00000000    0.13346163
     atom    4 type  1   force =     0.00000000    0.00000000   -0.13346184
     atom    5 type  1   force =     0.00000000    0.00000000    0.13346220
     atom    6 type  1   force =     0.00000000    0.00000000   -0.13346213
     atom    7 type  1   force =     0.00000000    0.00000000    0.13346196
     atom    8 type  1   force =     0.00000000    0.00000000   -0.13346166
     atom    9 type  1   force =     0.00000000    0.00000000    0.13346184
     atom   10 type  1   force =     0.00000000    0.00000000   -0.13346197
     atom   11 type  1   force =     0.00000000    0.00000000    0.13346212
     atom   12 type  1   force =     0.00000000    0.00000000   -0.13346210
     atom   13 type  1   force =     0.00000000    0.00000000    0.13346182
     atom   14 type  1   force =     0.00000000    0.00000000   -0.13346188
     atom   15 type  1   force =     0.00000000    0.00000000    0.13346214
     atom   16 type  1   force =     0.00000000    0.00000000   -0.13346198
     atom   17 type  1   force =     0.00000000    0.00000000    0.13346183
     atom   18 type  1   force =     0.00000000    0.00000000   -0.13346194
     atom   19 type  1   force =     0.00000000    0.00000000    0.13346195
     atom   20 type  1   force =     0.00000000    0.00000000   -0.13346222

     Total force =     0.596860     Total SCF correction =     0.000008

     Writing output data file H2_gamma.save
 
     init_run     :      0.69s CPU      0.74s WALL (       1 calls)
     electrons    :     12.15s CPU     12.30s WALL (       1 calls)
     forces       :      0.24s CPU      0.24s WALL (       1 calls)

     Called by init_run:
     wfcinit      :      0.31s CPU      0.32s WALL (       1 calls)
     potinit      :      0.15s CPU      0.16s WALL (       1 calls)

     Called by electrons:
     c_bands      :      8.73s CPU      8.76s WALL (       9 calls)
     sum_band     :      2.05s CPU      2.11s WALL (       9 calls)
     v_of_rho     :      0.66s CPU      0.65s WALL (      10 calls)
     mix_rho      :      0.59s CPU      0.60s WALL (       9 calls)

     Called by c_bands:
     regterg      :      8.65s CPU      8.75s WALL (       9 calls)

     Called by *egterg:
     h_psi        :      7.95s CPU      8.03s WALL (      50 calls)
     g_psi        :      0.02s CPU      0.06s WALL (      40 calls)
     rdiaghg      :      0.06s CPU      0.06s WALL (      49 calls)

     Called by h_psi:

     General routines
     fft          :      1.12s CPU      1.15s WALL (      41 calls)
     fftw         :      7.99s CPU      8.12s WALL (     624 calls)
 
     Parallel routines
     fft_scatter  :      2.96s CPU      3.10s WALL (     665 calls)
 
     PWSCF        :    13.42s CPU        13.70s WALL

 
   This run was terminated on:  16: 0:27   2Aug2013            

=------------------------------------------------------------------------------=
   JOB DONE.
=------------------------------------------------------------------------------=
