
     Program PWSCF v.5.0        starts on  4Dec2012 at 17:40:54 

     This program is part of the open-source Quantum ESPRESSO suite
     for quantum simulation of materials; please cite
         "P. Giannozzi et al., J. Phys.:Condens. Matter 21 395502 (2009);
          URL http://www.quantum-espresso.org", 
     in publications or presentations arising from this work. More details at
     http://www.quantum-espresso.org/quote.php

     Parallel version (MPI), running on     6 processors
     R & G space division:  proc/pool =    6

     Current dimensions of program PWSCF are:
     Max number of different atomic species (ntypx) = 10
     Max number of k-points (npk) =  40000
     Max angular momentum in pseudopotentials (lmaxx) =  3
     Reading input from /home/ferretti/want/tests/test18/scf_H2_kpt.in
               file H.pz-vbc.UPF: wavefunction(s)  1S renormalized

     Subspace diagonalization in iterative solution of the eigenvalue problem:
     a serial algorithm will be used

     Found symmetry operation: I + (  0.0000  0.0000  0.1000)
     This is a supercell, fractional translations are disabled
 
     Parallelization info
     --------------------
     sticks:   dense  smooth     PW     G-vecs:    dense   smooth      PW
     Min         849     849    213               113885   113885   14247
     Max         850     850    214               113886   113886   14248
     Sum        5097    5097   1281               683313   683313   85485
 


     bravais-lattice index     =            8
     lattice parameter (alat)  =      20.0000  a.u.
     unit-cell volume          =   20000.0000 (a.u.)^3
     number of atoms/cell      =           20
     number of atomic types    =            1
     number of electrons       =        20.00
     number of Kohn-Sham states=           20
     kinetic-energy cutoff     =      40.0000  Ry
     charge density cutoff     =     160.0000  Ry
     convergence threshold     =      1.0E-08
     mixing beta               =       0.3000
     number of iterations used =            8  plain     mixing
     Exchange-correlation      =  SLA  PZ   NOGX NOGC ( 1 1 0 0 0)
     EXX-fraction              =        0.00

     celldm(1)=  20.000000  celldm(2)=   1.000000  celldm(3)=   2.500000
     celldm(4)=   0.000000  celldm(5)=   0.000000  celldm(6)=   0.000000

     crystal axes: (cart. coord. in units of alat)
               a(1) = (   1.000000   0.000000   0.000000 )  
               a(2) = (   0.000000   1.000000   0.000000 )  
               a(3) = (   0.000000   0.000000   2.500000 )  

     reciprocal axes: (cart. coord. in units 2 pi/alat)
               b(1) = (  1.000000  0.000000  0.000000 )  
               b(2) = (  0.000000  1.000000  0.000000 )  
               b(3) = (  0.000000  0.000000  0.400000 )  


     PseudoPot. # 1 for H  read from file:
     ../pseudo/H.pz-vbc.UPF
     MD5 check sum: 90becb985b714f09656c73597998d266
     Pseudo is Norm-conserving, Zval =  1.0
     Generated by new atomic code, or converted to UPF format
     Using radial grid of  131 points,  0 beta functions with: 

     atomic species   valence    mass     pseudopotential
        H              1.00     1.00800     H ( 1.00)

      8 Sym. Ops. (no inversion) found



   Cartesian axes

     site n.     atom                  positions (alat units)
         1           H   tau(   1) = (   0.0000000   0.0000000   0.0000000  )
         2           H   tau(   2) = (   0.0000000   0.0000000   0.1000000  )
         3           H   tau(   3) = (   0.0000000   0.0000000   0.2500000  )
         4           H   tau(   4) = (   0.0000000   0.0000000   0.3500000  )
         5           H   tau(   5) = (   0.0000000   0.0000000   0.5000000  )
         6           H   tau(   6) = (   0.0000000   0.0000000   0.6000000  )
         7           H   tau(   7) = (   0.0000000   0.0000000   0.7500000  )
         8           H   tau(   8) = (   0.0000000   0.0000000   0.8500000  )
         9           H   tau(   9) = (   0.0000000   0.0000000   1.0000000  )
        10           H   tau(  10) = (   0.0000000   0.0000000   1.1000000  )
        11           H   tau(  11) = (   0.0000000   0.0000000   1.2500000  )
        12           H   tau(  12) = (   0.0000000   0.0000000   1.3500000  )
        13           H   tau(  13) = (   0.0000000   0.0000000   1.5000000  )
        14           H   tau(  14) = (   0.0000000   0.0000000   1.6000000  )
        15           H   tau(  15) = (   0.0000000   0.0000000   1.7500000  )
        16           H   tau(  16) = (   0.0000000   0.0000000   1.8500000  )
        17           H   tau(  17) = (   0.0000000   0.0000000   2.0000000  )
        18           H   tau(  18) = (   0.0000000   0.0000000   2.1000000  )
        19           H   tau(  19) = (   0.0000000   0.0000000   2.2500000  )
        20           H   tau(  20) = (   0.0000000   0.0000000   2.3500000  )

     number of k points=     1
                       cart. coord. in units 2pi/alat
        k(    1) = (   0.0000000   0.0000000   0.0000000), wk =   2.0000000

     Dense  grid:   683313 G-vectors     FFT dimensions: (  81,  81, 216)

     Largest allocated arrays     est. size (Mb)     dimensions
        Kohn-Sham Wavefunctions         4.35 Mb     (  14248,   20)
        NL pseudopotentials             0.00 Mb     (  14248,    0)
        Each V/rho on FFT grid          3.60 Mb     ( 236196)
        Each G-vector array             0.87 Mb     ( 113886)
        G-vector shells                 0.09 Mb     (  11185)
     Largest temporary arrays     est. size (Mb)     dimensions
        Auxiliary wavefunctions        17.39 Mb     (  14248,   80)
        Each subspace H/S matrix        0.10 Mb     (  80,  80)
        Each <psi_i|beta_j> matrix      0.00 Mb     (      0,   20)
        Arrays for rho mixing          28.83 Mb     ( 236196,   8)

     Initial potential from superposition of free atoms
     Check: negative starting charge=   -0.016698

     starting charge   19.99947, renormalised to   20.00000

     negative rho (up, down):  0.167E-01 0.000E+00
     Starting wfc are   20 randomized atomic wfcs

     total cpu time spent up to now is        1.5 secs

     per-process dynamical memory:    67.3 Mb

     Self-consistent Calculation

     iteration #  1     ecut=    40.00 Ry     beta=0.30
     Davidson diagonalization with overlap
     ethr =  1.00E-02,  avg # of iterations =  7.0

     negative rho (up, down):  0.115E-01 0.000E+00

     total cpu time spent up to now is        5.3 secs

     total energy              =     -22.20199940 Ry
     Harris-Foulkes estimate   =     -22.29502577 Ry
     estimated scf accuracy    <       0.37708822 Ry

     iteration #  2     ecut=    40.00 Ry     beta=0.30
     Davidson diagonalization with overlap
     ethr =  1.89E-03,  avg # of iterations =  1.0

     negative rho (up, down):  0.192E-02 0.000E+00

     total cpu time spent up to now is        7.5 secs

     total energy              =     -22.13444824 Ry
     Harris-Foulkes estimate   =     -22.20634086 Ry
     estimated scf accuracy    <       0.14936180 Ry

     iteration #  3     ecut=    40.00 Ry     beta=0.30
     Davidson diagonalization with overlap
     ethr =  7.47E-04,  avg # of iterations =  3.0

     negative rho (up, down):  0.157E-02 0.000E+00

     total cpu time spent up to now is        9.8 secs

     total energy              =     -22.14813678 Ry
     Harris-Foulkes estimate   =     -22.14813937 Ry
     estimated scf accuracy    <       0.00022220 Ry

     iteration #  4     ecut=    40.00 Ry     beta=0.30
     Davidson diagonalization with overlap
     ethr =  1.11E-06,  avg # of iterations = 20.0

     negative rho (up, down):  0.246E-03 0.000E+00

     total cpu time spent up to now is       14.9 secs

     total energy              =     -22.14836151 Ry
     Harris-Foulkes estimate   =     -22.14825405 Ry
     estimated scf accuracy    <       0.00010879 Ry

     iteration #  5     ecut=    40.00 Ry     beta=0.30
     Davidson diagonalization with overlap
     ethr =  5.44E-07,  avg # of iterations =  3.0

     negative rho (up, down):  0.450E-05 0.000E+00

     total cpu time spent up to now is       17.4 secs

     total energy              =     -22.14833202 Ry
     Harris-Foulkes estimate   =     -22.14836556 Ry
     estimated scf accuracy    <       0.00008875 Ry

     iteration #  6     ecut=    40.00 Ry     beta=0.30
     Davidson diagonalization with overlap
     ethr =  4.44E-07,  avg # of iterations =  3.0

     negative rho (up, down):  0.180E-05 0.000E+00

     total cpu time spent up to now is       19.8 secs

     total energy              =     -22.14833867 Ry
     Harris-Foulkes estimate   =     -22.14833836 Ry
     estimated scf accuracy    <       0.00000245 Ry

     iteration #  7     ecut=    40.00 Ry     beta=0.30
     Davidson diagonalization with overlap
     ethr =  1.23E-08,  avg # of iterations =  2.0

     negative rho (up, down):  0.114E-05 0.000E+00

     total cpu time spent up to now is       22.1 secs

     total energy              =     -22.14833887 Ry
     Harris-Foulkes estimate   =     -22.14833888 Ry
     estimated scf accuracy    <       0.00000009 Ry

     iteration #  8     ecut=    40.00 Ry     beta=0.30
     Davidson diagonalization with overlap
     ethr =  4.34E-10,  avg # of iterations =  1.0

     negative rho (up, down):  0.283E-07 0.000E+00

     total cpu time spent up to now is       24.4 secs

     total energy              =     -22.14833889 Ry
     Harris-Foulkes estimate   =     -22.14833887 Ry
     estimated scf accuracy    <       0.00000007 Ry

     iteration #  9     ecut=    40.00 Ry     beta=0.30
     Davidson diagonalization with overlap
     ethr =  3.60E-10,  avg # of iterations =  1.0

     total cpu time spent up to now is       26.3 secs

     End of self-consistent calculation

          k = 0.0000 0.0000 0.0000 ( 85485 PWs)   bands (ev):

   -10.9201 -10.7239 -10.7239 -10.1438 -10.1438  -9.2127  -9.2127  -8.0645
    -8.0645  -7.3486  -3.5718  -2.4662  -2.4662  -0.1872  -0.1872  -0.0685
     0.0554   0.0555   0.1434   0.1435

     highest occupied, lowest unoccupied level (ev):    -7.3486   -3.5718

!    total energy              =     -22.14833889 Ry
     Harris-Foulkes estimate   =     -22.14833889 Ry
     estimated scf accuracy    <          2.9E-10 Ry

     The total energy is the sum of the following terms:

     one-electron contribution =     -44.51500310 Ry
     hartree contribution      =      22.97455913 Ry
     xc contribution           =     -11.75546331 Ry
     ewald contribution        =      11.14756839 Ry

     convergence has been achieved in   9 iterations

     Forces acting on atoms (Ry/au):

     atom    1 type  1   force =     0.00000000    0.00000000    0.13346169
     atom    2 type  1   force =     0.00000000    0.00000000   -0.13346171
     atom    3 type  1   force =     0.00000000    0.00000000    0.13346170
     atom    4 type  1   force =     0.00000000    0.00000000   -0.13346164
     atom    5 type  1   force =     0.00000000    0.00000000    0.13346167
     atom    6 type  1   force =     0.00000000    0.00000000   -0.13346169
     atom    7 type  1   force =     0.00000000    0.00000000    0.13346174
     atom    8 type  1   force =     0.00000000    0.00000000   -0.13346178
     atom    9 type  1   force =     0.00000000    0.00000000    0.13346180
     atom   10 type  1   force =     0.00000000    0.00000000   -0.13346166
     atom   11 type  1   force =     0.00000000    0.00000000    0.13346162
     atom   12 type  1   force =     0.00000000    0.00000000   -0.13346167
     atom   13 type  1   force =     0.00000000    0.00000000    0.13346167
     atom   14 type  1   force =     0.00000000    0.00000000   -0.13346171
     atom   15 type  1   force =     0.00000000    0.00000000    0.13346175
     atom   16 type  1   force =     0.00000000    0.00000000   -0.13346174
     atom   17 type  1   force =     0.00000000    0.00000000    0.13346168
     atom   18 type  1   force =     0.00000000    0.00000000   -0.13346167
     atom   19 type  1   force =     0.00000000    0.00000000    0.13346171
     atom   20 type  1   force =     0.00000000    0.00000000   -0.13346175

     Total force =     0.596859     Total SCF correction =     0.000002

     Writing output data file H2_kpt.save
 
     init_run     :      1.40s CPU      1.44s WALL (       1 calls)
     electrons    :     24.27s CPU     24.83s WALL (       1 calls)
     forces       :      0.43s CPU      0.44s WALL (       1 calls)

     Called by init_run:
     wfcinit      :      0.68s CPU      0.69s WALL (       1 calls)
     potinit      :      0.17s CPU      0.17s WALL (       1 calls)

     Called by electrons:
     c_bands      :     17.90s CPU     18.18s WALL (       9 calls)
     sum_band     :      3.92s CPU      4.01s WALL (       9 calls)
     v_of_rho     :      0.66s CPU      0.64s WALL (      10 calls)
     mix_rho      :      0.85s CPU      0.87s WALL (       9 calls)

     Called by c_bands:
     cegterg      :     17.82s CPU     18.18s WALL (       9 calls)

     Called by *egterg:
     h_psi        :     16.22s CPU     16.35s WALL (      51 calls)
     g_psi        :      0.14s CPU      0.13s WALL (      41 calls)
     cdiaghg      :      0.05s CPU      0.08s WALL (      50 calls)

     Called by h_psi:

     General routines
     fft          :      1.15s CPU      1.19s WALL (      41 calls)
     fftw         :     16.20s CPU     16.38s WALL (    1202 calls)
     davcio       :      0.02s CPU      0.09s WALL (      10 calls)
 
     Parallel routines
     fft_scatter  :      6.36s CPU      6.29s WALL (    1243 calls)
     EXX routines
 
     PWSCF        :    26.60s CPU        27.29s WALL

 
   This run was terminated on:  17:41:21   4Dec2012            

=------------------------------------------------------------------------------=
   JOB DONE.
=------------------------------------------------------------------------------=
