
     Program POST-PROC v.2.0.4  starts ...
     Today is 23Nov2004 at 14:50:10 

     nbndx  =    32  nbnd   =    20  natomwfc =    32  npwx   =   17017
     nelec  =   32.00 nkb   =     8  ngl    =    5816
 Crystal basis vectors, in unit of alat =    20.7114060000000     
 a(1)  1.000000  0.000000  0.000000
 a(2)  0.000000  1.125000  0.000000
 a(3)  0.000000  0.000000  1.125000
 Atomic positions ( lattice coordinates )
 Specie C   atoms =            8
 tau(1)  0.000000  0.000000  0.000000
 tau(2)  0.111314  0.000000  0.000000
 tau(3)  0.250000  0.000000  0.000000
 tau(4)  0.361314  0.000000  0.000000
 tau(5)  0.500000  0.000000  0.000000
 tau(6)  0.611314  0.000000  0.000000
 tau(7)  0.750000  0.000000  0.000000
 tau(8)  0.861314  0.000000  0.000000
 Atomic positions ( From PW )
 tau(1)  0.000000  0.000000  0.000000
 tau(2)  0.111314  0.000000  0.000000
 tau(3)  0.250000  0.000000  0.000000
 tau(4)  0.361314  0.000000  0.000000
 tau(5)  0.500000  0.000000  0.000000
 tau(6)  0.611314  0.000000  0.000000
 tau(7)  0.750000  0.000000  0.000000
 tau(8)  0.861314  0.000000  0.000000
 k    1****  217.314859    0.000000    0.000000    0.000000 0
 k    2****  217.314859    0.250000    0.000000    0.000000 0
 k    3****  217.314859    0.500000    0.000000    0.000000 0
 k    4****  217.314859    0.750000    0.000000    0.000000 0
 Wave function dimensions ( npwx, nbnd, nkstot, nspin) =        17017
          20           4           1
 combining indexes
 Grid  ( nr1, nr2, nr3, ngm_g, npw_g, ikw ) =           60          72
          72      135939       19651           4
 K-points (reciprocal lattice coordinates) 
 ik =   1  0.000000  0.000000  0.000000 0
 ik =   2  0.250000  0.000000  0.000000 0
 ik =   3  0.500000  0.000000  0.000000 0
 ik =   4  0.750000  0.000000  0.000000 0
 K-points in unit of 2PI/alat (cartesian coordinates) 
 ik =   1  0.000000  0.000000  0.000000 0
 ik =   2  0.250000  0.000000  0.000000 0
 ik =   3  0.500000  0.000000  0.000000 0
 ik =   4  0.750000  0.000000  0.000000 0
