
     Program POST-PROC v.3.0    starts ...
     Today is 30Nov2005 at 21:45: 1 

     Reading file chain4.save ...      only dimensions
     read complete

     Reading file chain4.save ...      all except wavefuctions
     read complete

     nbndx  =    40  nbnd   =    40  natomwfc =    16  npwx   =    8539
     nelec  =  16.00  nkb   =    32  ngl    =    7151
