
     Program POST-PROC v.3.0    starts ...
     Today is 30Nov2005 at 21:44:53 

     Reading file chain8.save ...      only dimensions
     read complete

     Reading file chain8.save ...      all except wavefuctions
     read complete

     nbndx  =    80  nbnd   =    80  natomwfc =    32  npwx   =   17017
     nelec  =  32.00  nkb   =    64  ngl    =   17515
