
     Program POST-PROC v.2.1.3  starts ...
     Today is  6Aug2005 at 12:39:58 

     Reading file chain4.save ... 
     read complete

     Reading file chain4.save ... 
     read complete

     nbndx  =    40  nbnd   =    40  natomwfc =    16  npwx   =    8539
     nelec  =   16.00 nkb   =    32  ngl    =    7151
