
     Program POST-PROC v.3.2    starts ...
     Today is 19May2007 at  3:41:20 

     nbndx  =    40  nbnd   =    40  natomwfc =    16  npwx   =    2178
     nelec  =  16.00  nkb   =    32  ngl    =    3070

     negative rho (up, down):  0.645E-03 0.000E+00
