
     Program POST-PROC v.2.1.3  starts ...
     Today is  6Aug2005 at 12:39:23 

     Reading file chain8.save ... 
     read complete

     Reading file chain8.save ... 
     read complete

     nbndx  =    80  nbnd   =    80  natomwfc =    32  npwx   =   17017
     nelec  =   32.00 nkb   =    64  ngl    =   17515
