
     Program POST-PROC v.3.1    starts ...
     Today is 12Apr2006 at  1: 4:55 

     nbndx  =    80  nbnd   =    80  natomwfc =    32  npwx   =   17017
     nelec  =  32.00  nkb   =    64  ngl    =   17515

     negative rho (up, down):  0.884E-02 0.000E+00
