
     Program POST-PROC v.2.1.4  starts ...
     Today is  2Sep2005 at 14:23:37 

     Reading file chain4.save ... 
     read complete

     Reading file chain4.save ... 
     read complete

     nbndx  =    40  nbnd   =    40  natomwfc =    16  npwx   =    8539
     nelec  =   16.00 nkb   =    32  ngl    =    7151
