
     Program POST-PROC v.3.2cvs starts ...
     Today is 14Oct2006 at  7:53:10 

     nbndx  =    80  nbnd   =    80  natomwfc =    32  npwx   =   17017
     nelec  =  32.00  nkb   =    64  ngl    =   17515

     negative rho (up, down):  0.884E-02 0.000E+00
