
     Program POST-PROC v.2.1.5  starts ...
     Today is 18Oct2005 at  0:58:40 

     Reading file chain4.save ... 
     read complete

     Reading file chain4.save ... 
     read complete

     nbndx  =    40  nbnd   =    40  natomwfc =    16  npwx   =    8539
     nelec  =   16.00 nkb   =    32  ngl    =    7151
