
     Program PWSCF v.5.0.2 (svn rev. 10303M) starts on 31Jul2013 at 19: 8:27 

     This program is part of the open-source Quantum ESPRESSO suite
     for quantum simulation of materials; please cite
         "P. Giannozzi et al., J. Phys.:Condens. Matter 21 395502 (2009);
          URL http://www.quantum-espresso.org", 
     in publications or presentations arising from this work. More details at
     http://www.quantum-espresso.org/quote

     Parallel version (MPI & OpenMP), running on       6 processor cores
     Number of MPI processes:                 6
     Threads/MPI process:                     1
     R & G space division:  proc/nbgrp/npool/nimage =       6
     Reading input from /home/ferretti/want/tests/test06/bands_dft_Au.in

     Current dimensions of program PWSCF are:
     Max number of different atomic species (ntypx) = 10
     Max number of k-points (npk) =  40000
     Max angular momentum in pseudopotentials (lmaxx) =  3

     Atomic positions and unit cell read from directory:
     ./SCRATCH/gold.save/
 

     Subspace diagonalization in iterative solution of the eigenvalue problem:
     a serial algorithm will be used

 
     Parallelization info
     --------------------
     sticks:   dense  smooth     PW     G-vecs:    dense   smooth      PW
     Min        1061    1061    316                15056    15056    2465
     Max        1063    1063    317                15057    15057    2466
     Sum        6369    6369   1901                90341    90341   14791
 


     bravais-lattice index     =            8
     lattice parameter (alat)  =      20.0000  a.u.
     unit-cell volume          =    1889.7280 (a.u.)^3
     number of atoms/cell      =            1
     number of atomic types    =            1
     number of electrons       =        11.00
     number of Kohn-Sham states=           10
     kinetic-energy cutoff     =      50.0000  Ry
     charge density cutoff     =     200.0000  Ry
     Exchange-correlation      =  SLA  PW   GGX  GGC ( 1 4 2 2 0)
     EXX-fraction              =        0.00

     celldm(1)=  20.000000  celldm(2)=   1.000000  celldm(3)=   0.236216
     celldm(4)=   0.000000  celldm(5)=   0.000000  celldm(6)=   0.000000

     crystal axes: (cart. coord. in units of alat)
               a(1) = (   1.000000   0.000000   0.000000 )  
               a(2) = (   0.000000   1.000000   0.000000 )  
               a(3) = (   0.000000   0.000000   0.236216 )  

     reciprocal axes: (cart. coord. in units 2 pi/alat)
               b(1) = (  1.000000  0.000000  0.000000 )  
               b(2) = (  0.000000  1.000000  0.000000 )  
               b(3) = (  0.000000  0.000000  4.233413 )  


     PseudoPot. # 1 for Au read from file:
     ../pseudo/Au11pw91.mt.UPF
     MD5 check sum: e270e13d0e45fa10676aee720c7982d9
     Pseudo is Norm-conserving + core correction, Zval = 11.0
     Generated by new atomic code, or converted to UPF format
     Using radial grid of  331 points,  2 beta functions with: 
                l(1) =   1
                l(2) =   2

     atomic species   valence    mass     pseudopotential
        Au            11.00   196.96650     Au( 1.00)

      8 Sym. Ops. (no inversion) found
          (note:  8 additional sym.ops. were found but ignored
           their fractional translations are incommensurate with FFT grid)

                                    s                        frac. trans.

      isym =  1     identity                                     

 cryst.   s( 1) = (     1          0          0      )
                  (     0          1          0      )
                  (     0          0          1      )

 cart.    s( 1) = (  1.0000000  0.0000000  0.0000000 )
                  (  0.0000000  1.0000000  0.0000000 )
                  (  0.0000000  0.0000000  1.0000000 )


      isym =  2     180 deg rotation - cart. axis [0,0,1]        

 cryst.   s( 2) = (    -1          0          0      )
                  (     0         -1          0      )
                  (     0          0          1      )

 cart.    s( 2) = ( -1.0000000  0.0000000  0.0000000 )
                  (  0.0000000 -1.0000000  0.0000000 )
                  (  0.0000000  0.0000000  1.0000000 )


      isym =  3      90 deg rotation - cart. axis [0,0,-1]       

 cryst.   s( 3) = (     0         -1          0      )
                  (     1          0          0      )
                  (     0          0          1      )

 cart.    s( 3) = (  0.0000000  1.0000000  0.0000000 )
                  ( -1.0000000  0.0000000  0.0000000 )
                  (  0.0000000  0.0000000  1.0000000 )


      isym =  4      90 deg rotation - cart. axis [0,0,1]        

 cryst.   s( 4) = (     0          1          0      )
                  (    -1          0          0      )
                  (     0          0          1      )

 cart.    s( 4) = (  0.0000000 -1.0000000  0.0000000 )
                  (  1.0000000  0.0000000  0.0000000 )
                  (  0.0000000  0.0000000  1.0000000 )


      isym =  5     inv. 180 deg rotation - cart. axis [0,1,0]   

 cryst.   s( 5) = (     1          0          0      )
                  (     0         -1          0      )
                  (     0          0          1      )

 cart.    s( 5) = (  1.0000000  0.0000000  0.0000000 )
                  (  0.0000000 -1.0000000  0.0000000 )
                  (  0.0000000  0.0000000  1.0000000 )


      isym =  6     inv. 180 deg rotation - cart. axis [1,0,0]   

 cryst.   s( 6) = (    -1          0          0      )
                  (     0          1          0      )
                  (     0          0          1      )

 cart.    s( 6) = ( -1.0000000  0.0000000  0.0000000 )
                  (  0.0000000  1.0000000  0.0000000 )
                  (  0.0000000  0.0000000  1.0000000 )


      isym =  7     inv. 180 deg rotation - cart. axis [1,1,0]   

 cryst.   s( 7) = (     0         -1          0      )
                  (    -1          0          0      )
                  (     0          0          1      )

 cart.    s( 7) = (  0.0000000 -1.0000000  0.0000000 )
                  ( -1.0000000  0.0000000  0.0000000 )
                  (  0.0000000  0.0000000  1.0000000 )


      isym =  8     inv. 180 deg rotation - cart. axis [1,-1,0]  

 cryst.   s( 8) = (     0          1          0      )
                  (     1          0          0      )
                  (     0          0          1      )

 cart.    s( 8) = (  0.0000000  1.0000000  0.0000000 )
                  (  1.0000000  0.0000000  0.0000000 )
                  (  0.0000000  0.0000000  1.0000000 )


     point group C_4v (4mm) 
     there are  5 classes
     the character table:

       E     2C4   C2    2s_v  2s_d 
A_1    1.00  1.00  1.00  1.00  1.00
A_2    1.00  1.00  1.00 -1.00 -1.00
B_1    1.00 -1.00  1.00  1.00 -1.00
B_2    1.00 -1.00  1.00 -1.00  1.00
E      2.00  0.00 -2.00  0.00  0.00

     the symmetry operations in each class:
     E        1
     C2       2
     2C4      3    4
     2s_v     5    6
     2s_d     7    8

   Cartesian axes

     site n.     atom                  positions (alat units)
         1           Au  tau(   1) = (   0.0000000   0.0000000   0.0472432  )

   Crystallographic axes

     site n.     atom                  positions (cryst. coord.)
         1           Au  tau(   1) = (  0.0000000  0.0000000  0.1999998  )

     number of k points=   101  gaussian smearing, width (Ry)=  0.0100
                       cart. coord. in units 2pi/alat
        k(    1) = (   0.0000000   0.0000000   0.0000000), wk =   0.0100000
        k(    2) = (   0.0000000   0.0000000   0.0211671), wk =   0.0200000
        k(    3) = (   0.0000000   0.0000000   0.0423341), wk =   0.0200000
        k(    4) = (   0.0000000   0.0000000   0.0635012), wk =   0.0200000
        k(    5) = (   0.0000000   0.0000000   0.0846683), wk =   0.0200000
        k(    6) = (   0.0000000   0.0000000   0.1058353), wk =   0.0200000
        k(    7) = (   0.0000000   0.0000000   0.1270024), wk =   0.0200000
        k(    8) = (   0.0000000   0.0000000   0.1481695), wk =   0.0200000
        k(    9) = (   0.0000000   0.0000000   0.1693365), wk =   0.0200000
        k(   10) = (   0.0000000   0.0000000   0.1905036), wk =   0.0200000
        k(   11) = (   0.0000000   0.0000000   0.2116707), wk =   0.0200000
        k(   12) = (   0.0000000   0.0000000   0.2328377), wk =   0.0200000
        k(   13) = (   0.0000000   0.0000000   0.2540048), wk =   0.0200000
        k(   14) = (   0.0000000   0.0000000   0.2751719), wk =   0.0200000
        k(   15) = (   0.0000000   0.0000000   0.2963389), wk =   0.0200000
        k(   16) = (   0.0000000   0.0000000   0.3175060), wk =   0.0200000
        k(   17) = (   0.0000000   0.0000000   0.3386731), wk =   0.0200000
        k(   18) = (   0.0000000   0.0000000   0.3598401), wk =   0.0200000
        k(   19) = (   0.0000000   0.0000000   0.3810072), wk =   0.0200000
        k(   20) = (   0.0000000   0.0000000   0.4021743), wk =   0.0200000
        k(   21) = (   0.0000000   0.0000000   0.4233413), wk =   0.0200000
        k(   22) = (   0.0000000   0.0000000   0.4445084), wk =   0.0200000
        k(   23) = (   0.0000000   0.0000000   0.4656755), wk =   0.0200000
        k(   24) = (   0.0000000   0.0000000   0.4868426), wk =   0.0200000
        k(   25) = (   0.0000000   0.0000000   0.5080096), wk =   0.0200000
        k(   26) = (   0.0000000   0.0000000   0.5291767), wk =   0.0200000
        k(   27) = (   0.0000000   0.0000000   0.5503438), wk =   0.0200000
        k(   28) = (   0.0000000   0.0000000   0.5715108), wk =   0.0200000
        k(   29) = (   0.0000000   0.0000000   0.5926779), wk =   0.0200000
        k(   30) = (   0.0000000   0.0000000   0.6138450), wk =   0.0200000
        k(   31) = (   0.0000000   0.0000000   0.6350120), wk =   0.0200000
        k(   32) = (   0.0000000   0.0000000   0.6561791), wk =   0.0200000
        k(   33) = (   0.0000000   0.0000000   0.6773462), wk =   0.0200000
        k(   34) = (   0.0000000   0.0000000   0.6985132), wk =   0.0200000
        k(   35) = (   0.0000000   0.0000000   0.7196803), wk =   0.0200000
        k(   36) = (   0.0000000   0.0000000   0.7408474), wk =   0.0200000
        k(   37) = (   0.0000000   0.0000000   0.7620144), wk =   0.0200000
        k(   38) = (   0.0000000   0.0000000   0.7831815), wk =   0.0200000
        k(   39) = (   0.0000000   0.0000000   0.8043486), wk =   0.0200000
        k(   40) = (   0.0000000   0.0000000   0.8255156), wk =   0.0200000
        k(   41) = (   0.0000000   0.0000000   0.8466827), wk =   0.0200000
        k(   42) = (   0.0000000   0.0000000   0.8678498), wk =   0.0200000
        k(   43) = (   0.0000000   0.0000000   0.8890168), wk =   0.0200000
        k(   44) = (   0.0000000   0.0000000   0.9101839), wk =   0.0200000
        k(   45) = (   0.0000000   0.0000000   0.9313510), wk =   0.0200000
        k(   46) = (   0.0000000   0.0000000   0.9525180), wk =   0.0200000
        k(   47) = (   0.0000000   0.0000000   0.9736851), wk =   0.0200000
        k(   48) = (   0.0000000   0.0000000   0.9948522), wk =   0.0200000
        k(   49) = (   0.0000000   0.0000000   1.0160192), wk =   0.0200000
        k(   50) = (   0.0000000   0.0000000   1.0371863), wk =   0.0200000
        k(   51) = (   0.0000000   0.0000000   1.0583534), wk =   0.0200000
        k(   52) = (   0.0000000   0.0000000   1.0795204), wk =   0.0200000
        k(   53) = (   0.0000000   0.0000000   1.1006875), wk =   0.0200000
        k(   54) = (   0.0000000   0.0000000   1.1218546), wk =   0.0200000
        k(   55) = (   0.0000000   0.0000000   1.1430216), wk =   0.0200000
        k(   56) = (   0.0000000   0.0000000   1.1641887), wk =   0.0200000
        k(   57) = (   0.0000000   0.0000000   1.1853558), wk =   0.0200000
        k(   58) = (   0.0000000   0.0000000   1.2065228), wk =   0.0200000
        k(   59) = (   0.0000000   0.0000000   1.2276899), wk =   0.0200000
        k(   60) = (   0.0000000   0.0000000   1.2488570), wk =   0.0200000
        k(   61) = (   0.0000000   0.0000000   1.2700240), wk =   0.0200000
        k(   62) = (   0.0000000   0.0000000   1.2911911), wk =   0.0200000
        k(   63) = (   0.0000000   0.0000000   1.3123582), wk =   0.0200000
        k(   64) = (   0.0000000   0.0000000   1.3335252), wk =   0.0200000
        k(   65) = (   0.0000000   0.0000000   1.3546923), wk =   0.0200000
        k(   66) = (   0.0000000   0.0000000   1.3758594), wk =   0.0200000
        k(   67) = (   0.0000000   0.0000000   1.3970265), wk =   0.0200000
        k(   68) = (   0.0000000   0.0000000   1.4181935), wk =   0.0200000
        k(   69) = (   0.0000000   0.0000000   1.4393606), wk =   0.0200000
        k(   70) = (   0.0000000   0.0000000   1.4605277), wk =   0.0200000
        k(   71) = (   0.0000000   0.0000000   1.4816947), wk =   0.0200000
        k(   72) = (   0.0000000   0.0000000   1.5028618), wk =   0.0200000
        k(   73) = (   0.0000000   0.0000000   1.5240289), wk =   0.0200000
        k(   74) = (   0.0000000   0.0000000   1.5451959), wk =   0.0200000
        k(   75) = (   0.0000000   0.0000000   1.5663630), wk =   0.0200000
        k(   76) = (   0.0000000   0.0000000   1.5875301), wk =   0.0200000
        k(   77) = (   0.0000000   0.0000000   1.6086971), wk =   0.0200000
        k(   78) = (   0.0000000   0.0000000   1.6298642), wk =   0.0200000
        k(   79) = (   0.0000000   0.0000000   1.6510313), wk =   0.0200000
        k(   80) = (   0.0000000   0.0000000   1.6721983), wk =   0.0200000
        k(   81) = (   0.0000000   0.0000000   1.6933654), wk =   0.0200000
        k(   82) = (   0.0000000   0.0000000   1.7145325), wk =   0.0200000
        k(   83) = (   0.0000000   0.0000000   1.7356995), wk =   0.0200000
        k(   84) = (   0.0000000   0.0000000   1.7568666), wk =   0.0200000
        k(   85) = (   0.0000000   0.0000000   1.7780337), wk =   0.0200000
        k(   86) = (   0.0000000   0.0000000   1.7992007), wk =   0.0200000
        k(   87) = (   0.0000000   0.0000000   1.8203678), wk =   0.0200000
        k(   88) = (   0.0000000   0.0000000   1.8415349), wk =   0.0200000
        k(   89) = (   0.0000000   0.0000000   1.8627019), wk =   0.0200000
        k(   90) = (   0.0000000   0.0000000   1.8838690), wk =   0.0200000
        k(   91) = (   0.0000000   0.0000000   1.9050361), wk =   0.0200000
        k(   92) = (   0.0000000   0.0000000   1.9262031), wk =   0.0200000
        k(   93) = (   0.0000000   0.0000000   1.9473702), wk =   0.0200000
        k(   94) = (   0.0000000   0.0000000   1.9685373), wk =   0.0200000
        k(   95) = (   0.0000000   0.0000000   1.9897043), wk =   0.0200000
        k(   96) = (   0.0000000   0.0000000   2.0108714), wk =   0.0200000
        k(   97) = (   0.0000000   0.0000000   2.0320385), wk =   0.0200000
        k(   98) = (   0.0000000   0.0000000   2.0532055), wk =   0.0200000
        k(   99) = (   0.0000000   0.0000000   2.0743726), wk =   0.0200000
        k(  100) = (   0.0000000   0.0000000   2.0955397), wk =   0.0200000
        k(  101) = (   0.0000000   0.0000000  -2.1167067), wk =   0.0100000

                       cryst. coord.
        k(    1) = (   0.0000000   0.0000000   0.0000000), wk =   0.0100000
        k(    2) = (   0.0000000   0.0000000   0.0050000), wk =   0.0200000
        k(    3) = (   0.0000000   0.0000000   0.0100000), wk =   0.0200000
        k(    4) = (   0.0000000   0.0000000   0.0150000), wk =   0.0200000
        k(    5) = (   0.0000000   0.0000000   0.0200000), wk =   0.0200000
        k(    6) = (   0.0000000   0.0000000   0.0250000), wk =   0.0200000
        k(    7) = (   0.0000000   0.0000000   0.0300000), wk =   0.0200000
        k(    8) = (   0.0000000   0.0000000   0.0350000), wk =   0.0200000
        k(    9) = (   0.0000000   0.0000000   0.0400000), wk =   0.0200000
        k(   10) = (   0.0000000   0.0000000   0.0450000), wk =   0.0200000
        k(   11) = (   0.0000000   0.0000000   0.0500000), wk =   0.0200000
        k(   12) = (   0.0000000   0.0000000   0.0550000), wk =   0.0200000
        k(   13) = (   0.0000000   0.0000000   0.0600000), wk =   0.0200000
        k(   14) = (   0.0000000   0.0000000   0.0650000), wk =   0.0200000
        k(   15) = (   0.0000000   0.0000000   0.0700000), wk =   0.0200000
        k(   16) = (   0.0000000   0.0000000   0.0750000), wk =   0.0200000
        k(   17) = (   0.0000000   0.0000000   0.0800000), wk =   0.0200000
        k(   18) = (   0.0000000   0.0000000   0.0850000), wk =   0.0200000
        k(   19) = (   0.0000000   0.0000000   0.0900000), wk =   0.0200000
        k(   20) = (   0.0000000   0.0000000   0.0950000), wk =   0.0200000
        k(   21) = (   0.0000000   0.0000000   0.1000000), wk =   0.0200000
        k(   22) = (   0.0000000   0.0000000   0.1050000), wk =   0.0200000
        k(   23) = (   0.0000000   0.0000000   0.1100000), wk =   0.0200000
        k(   24) = (   0.0000000   0.0000000   0.1150000), wk =   0.0200000
        k(   25) = (   0.0000000   0.0000000   0.1200000), wk =   0.0200000
        k(   26) = (   0.0000000   0.0000000   0.1250000), wk =   0.0200000
        k(   27) = (   0.0000000   0.0000000   0.1300000), wk =   0.0200000
        k(   28) = (   0.0000000   0.0000000   0.1350000), wk =   0.0200000
        k(   29) = (   0.0000000   0.0000000   0.1400000), wk =   0.0200000
        k(   30) = (   0.0000000   0.0000000   0.1450000), wk =   0.0200000
        k(   31) = (   0.0000000   0.0000000   0.1500000), wk =   0.0200000
        k(   32) = (   0.0000000   0.0000000   0.1550000), wk =   0.0200000
        k(   33) = (   0.0000000   0.0000000   0.1600000), wk =   0.0200000
        k(   34) = (   0.0000000   0.0000000   0.1650000), wk =   0.0200000
        k(   35) = (   0.0000000   0.0000000   0.1700000), wk =   0.0200000
        k(   36) = (   0.0000000   0.0000000   0.1750000), wk =   0.0200000
        k(   37) = (   0.0000000   0.0000000   0.1800000), wk =   0.0200000
        k(   38) = (   0.0000000   0.0000000   0.1850000), wk =   0.0200000
        k(   39) = (   0.0000000   0.0000000   0.1900000), wk =   0.0200000
        k(   40) = (   0.0000000   0.0000000   0.1950000), wk =   0.0200000
        k(   41) = (   0.0000000   0.0000000   0.2000000), wk =   0.0200000
        k(   42) = (   0.0000000   0.0000000   0.2050000), wk =   0.0200000
        k(   43) = (   0.0000000   0.0000000   0.2100000), wk =   0.0200000
        k(   44) = (   0.0000000   0.0000000   0.2150000), wk =   0.0200000
        k(   45) = (   0.0000000   0.0000000   0.2200000), wk =   0.0200000
        k(   46) = (   0.0000000   0.0000000   0.2250000), wk =   0.0200000
        k(   47) = (   0.0000000   0.0000000   0.2300000), wk =   0.0200000
        k(   48) = (   0.0000000   0.0000000   0.2350000), wk =   0.0200000
        k(   49) = (   0.0000000   0.0000000   0.2400000), wk =   0.0200000
        k(   50) = (   0.0000000   0.0000000   0.2450000), wk =   0.0200000
        k(   51) = (   0.0000000   0.0000000   0.2500000), wk =   0.0200000
        k(   52) = (   0.0000000   0.0000000   0.2550000), wk =   0.0200000
        k(   53) = (   0.0000000   0.0000000   0.2600000), wk =   0.0200000
        k(   54) = (   0.0000000   0.0000000   0.2650000), wk =   0.0200000
        k(   55) = (   0.0000000   0.0000000   0.2700000), wk =   0.0200000
        k(   56) = (   0.0000000   0.0000000   0.2750000), wk =   0.0200000
        k(   57) = (   0.0000000   0.0000000   0.2800000), wk =   0.0200000
        k(   58) = (   0.0000000   0.0000000   0.2850000), wk =   0.0200000
        k(   59) = (   0.0000000   0.0000000   0.2900000), wk =   0.0200000
        k(   60) = (   0.0000000   0.0000000   0.2950000), wk =   0.0200000
        k(   61) = (   0.0000000   0.0000000   0.3000000), wk =   0.0200000
        k(   62) = (   0.0000000   0.0000000   0.3050000), wk =   0.0200000
        k(   63) = (   0.0000000   0.0000000   0.3100000), wk =   0.0200000
        k(   64) = (   0.0000000   0.0000000   0.3150000), wk =   0.0200000
        k(   65) = (   0.0000000   0.0000000   0.3200000), wk =   0.0200000
        k(   66) = (   0.0000000   0.0000000   0.3250000), wk =   0.0200000
        k(   67) = (   0.0000000   0.0000000   0.3300000), wk =   0.0200000
        k(   68) = (   0.0000000   0.0000000   0.3350000), wk =   0.0200000
        k(   69) = (   0.0000000   0.0000000   0.3400000), wk =   0.0200000
        k(   70) = (   0.0000000   0.0000000   0.3450000), wk =   0.0200000
        k(   71) = (   0.0000000   0.0000000   0.3500000), wk =   0.0200000
        k(   72) = (   0.0000000   0.0000000   0.3550000), wk =   0.0200000
        k(   73) = (   0.0000000   0.0000000   0.3600000), wk =   0.0200000
        k(   74) = (   0.0000000   0.0000000   0.3650000), wk =   0.0200000
        k(   75) = (   0.0000000   0.0000000   0.3700000), wk =   0.0200000
        k(   76) = (   0.0000000   0.0000000   0.3750000), wk =   0.0200000
        k(   77) = (   0.0000000   0.0000000   0.3800000), wk =   0.0200000
        k(   78) = (   0.0000000   0.0000000   0.3850000), wk =   0.0200000
        k(   79) = (   0.0000000   0.0000000   0.3900000), wk =   0.0200000
        k(   80) = (   0.0000000   0.0000000   0.3950000), wk =   0.0200000
        k(   81) = (   0.0000000   0.0000000   0.4000000), wk =   0.0200000
        k(   82) = (   0.0000000   0.0000000   0.4050000), wk =   0.0200000
        k(   83) = (   0.0000000   0.0000000   0.4100000), wk =   0.0200000
        k(   84) = (   0.0000000   0.0000000   0.4150000), wk =   0.0200000
        k(   85) = (   0.0000000   0.0000000   0.4200000), wk =   0.0200000
        k(   86) = (   0.0000000   0.0000000   0.4250000), wk =   0.0200000
        k(   87) = (   0.0000000   0.0000000   0.4300000), wk =   0.0200000
        k(   88) = (   0.0000000   0.0000000   0.4350000), wk =   0.0200000
        k(   89) = (   0.0000000   0.0000000   0.4400000), wk =   0.0200000
        k(   90) = (   0.0000000   0.0000000   0.4450000), wk =   0.0200000
        k(   91) = (   0.0000000   0.0000000   0.4500000), wk =   0.0200000
        k(   92) = (   0.0000000   0.0000000   0.4550000), wk =   0.0200000
        k(   93) = (   0.0000000   0.0000000   0.4600000), wk =   0.0200000
        k(   94) = (   0.0000000   0.0000000   0.4650000), wk =   0.0200000
        k(   95) = (   0.0000000   0.0000000   0.4700000), wk =   0.0200000
        k(   96) = (   0.0000000   0.0000000   0.4750000), wk =   0.0200000
        k(   97) = (   0.0000000   0.0000000   0.4800000), wk =   0.0200000
        k(   98) = (   0.0000000   0.0000000   0.4850000), wk =   0.0200000
        k(   99) = (   0.0000000   0.0000000   0.4900000), wk =   0.0200000
        k(  100) = (   0.0000000   0.0000000   0.4950000), wk =   0.0200000
        k(  101) = (   0.0000000   0.0000000  -0.5000000), wk =   0.0100000

     Dense  grid:    90341 G-vectors     FFT dimensions: (  96,  96,  24)

     Largest allocated arrays     est. size (Mb)     dimensions
        Kohn-Sham Wavefunctions         0.29 Mb     (    1881,   10)
        NL pseudopotentials             0.23 Mb     (    1881,    8)
        Each V/rho on FFT grid          0.56 Mb     (   36864)
        Each G-vector array             0.11 Mb     (   15057)
        G-vector shells                 0.03 Mb     (    3914)
     Largest temporary arrays     est. size (Mb)     dimensions
        Auxiliary wavefunctions         1.15 Mb     (    1881,   40)
        Each subspace H/S matrix        0.02 Mb     (      40,   40)
        Each <psi_i|beta_j> matrix      0.00 Mb     (       8,   10)

     Check: negative/imaginary core charge=   -0.000021    0.000000

     The potential is recalculated from file :
     ./SCRATCH/gold.save/charge-density.dat

     Starting wfc are    9 randomized atomic wfcs

     Band Structure Calculation
     Davidson diagonalization with overlap

     Computing kpt #:     1
     total cpu time spent up to now is        1.4 secs

     Computing kpt #:     2
     total cpu time spent up to now is        2.0 secs

     Computing kpt #:     3
     total cpu time spent up to now is        2.6 secs

     Computing kpt #:     4
     total cpu time spent up to now is        3.2 secs

     Computing kpt #:     5
     total cpu time spent up to now is        3.8 secs

     Computing kpt #:     6
     total cpu time spent up to now is        4.4 secs

     Computing kpt #:     7
     total cpu time spent up to now is        5.0 secs

     Computing kpt #:     8
     total cpu time spent up to now is        5.6 secs

     Computing kpt #:     9
     total cpu time spent up to now is        6.2 secs

     Computing kpt #:    10
     total cpu time spent up to now is        6.8 secs

     Computing kpt #:    11
     total cpu time spent up to now is        7.4 secs

     Computing kpt #:    12
     total cpu time spent up to now is        7.9 secs

     Computing kpt #:    13
     total cpu time spent up to now is        8.5 secs

     Computing kpt #:    14
     total cpu time spent up to now is        9.1 secs

     Computing kpt #:    15
     total cpu time spent up to now is        9.7 secs

     Computing kpt #:    16
     total cpu time spent up to now is       10.3 secs

     Computing kpt #:    17
     total cpu time spent up to now is       10.9 secs

     Computing kpt #:    18
     total cpu time spent up to now is       11.5 secs

     Computing kpt #:    19
     total cpu time spent up to now is       12.1 secs

     Computing kpt #:    20
     total cpu time spent up to now is       12.7 secs

     Computing kpt #:    21
     total cpu time spent up to now is       13.3 secs

     Computing kpt #:    22
     total cpu time spent up to now is       13.9 secs

     Computing kpt #:    23
     total cpu time spent up to now is       14.4 secs

     Computing kpt #:    24
     total cpu time spent up to now is       15.0 secs

     Computing kpt #:    25
     total cpu time spent up to now is       15.6 secs

     Computing kpt #:    26
     total cpu time spent up to now is       16.2 secs

     Computing kpt #:    27
     total cpu time spent up to now is       16.8 secs

     Computing kpt #:    28
     total cpu time spent up to now is       17.4 secs

     Computing kpt #:    29
     total cpu time spent up to now is       18.0 secs

     Computing kpt #:    30
     total cpu time spent up to now is       18.6 secs

     Computing kpt #:    31
     total cpu time spent up to now is       19.2 secs

     Computing kpt #:    32
     total cpu time spent up to now is       19.8 secs

     Computing kpt #:    33
     total cpu time spent up to now is       20.4 secs

     Computing kpt #:    34
     total cpu time spent up to now is       21.0 secs

     Computing kpt #:    35
     total cpu time spent up to now is       21.6 secs

     Computing kpt #:    36
     total cpu time spent up to now is       22.2 secs

     Computing kpt #:    37
     total cpu time spent up to now is       22.7 secs

     Computing kpt #:    38
     total cpu time spent up to now is       23.3 secs

     Computing kpt #:    39
     total cpu time spent up to now is       23.9 secs

     Computing kpt #:    40
     total cpu time spent up to now is       24.5 secs

     Computing kpt #:    41
     total cpu time spent up to now is       25.1 secs

     Computing kpt #:    42
     total cpu time spent up to now is       25.7 secs

     Computing kpt #:    43
     total cpu time spent up to now is       26.3 secs

     Computing kpt #:    44
     total cpu time spent up to now is       26.9 secs

     Computing kpt #:    45
     total cpu time spent up to now is       27.5 secs

     Computing kpt #:    46
     total cpu time spent up to now is       28.1 secs

     Computing kpt #:    47
     total cpu time spent up to now is       28.7 secs

     Computing kpt #:    48
     total cpu time spent up to now is       29.3 secs

     Computing kpt #:    49
     total cpu time spent up to now is       29.9 secs

     Computing kpt #:    50
     total cpu time spent up to now is       30.5 secs

     Computing kpt #:    51
     total cpu time spent up to now is       31.1 secs

     Computing kpt #:    52
     total cpu time spent up to now is       31.7 secs

     Computing kpt #:    53
     total cpu time spent up to now is       32.3 secs

     Computing kpt #:    54
     total cpu time spent up to now is       32.8 secs

     Computing kpt #:    55
     total cpu time spent up to now is       33.4 secs

     Computing kpt #:    56
     total cpu time spent up to now is       34.0 secs

     Computing kpt #:    57
     total cpu time spent up to now is       34.6 secs

     Computing kpt #:    58
     total cpu time spent up to now is       35.2 secs

     Computing kpt #:    59
     total cpu time spent up to now is       35.7 secs

     Computing kpt #:    60
     total cpu time spent up to now is       36.3 secs

     Computing kpt #:    61
     total cpu time spent up to now is       36.9 secs

     Computing kpt #:    62
     total cpu time spent up to now is       37.5 secs

     Computing kpt #:    63
     total cpu time spent up to now is       38.1 secs

     Computing kpt #:    64
     total cpu time spent up to now is       38.7 secs

     Computing kpt #:    65
     total cpu time spent up to now is       39.3 secs

     Computing kpt #:    66
     total cpu time spent up to now is       39.8 secs

     Computing kpt #:    67
     total cpu time spent up to now is       40.4 secs

     Computing kpt #:    68
     total cpu time spent up to now is       41.0 secs

     Computing kpt #:    69
     total cpu time spent up to now is       41.6 secs

     Computing kpt #:    70
     total cpu time spent up to now is       42.2 secs

     Computing kpt #:    71
     total cpu time spent up to now is       42.8 secs

     Computing kpt #:    72
     total cpu time spent up to now is       43.4 secs

     Computing kpt #:    73
     total cpu time spent up to now is       44.0 secs

     Computing kpt #:    74
     total cpu time spent up to now is       44.7 secs

     Computing kpt #:    75
     total cpu time spent up to now is       45.4 secs

     Computing kpt #:    76
     total cpu time spent up to now is       46.1 secs

     Computing kpt #:    77
     total cpu time spent up to now is       46.8 secs

     Computing kpt #:    78
     total cpu time spent up to now is       47.4 secs

     Computing kpt #:    79
     total cpu time spent up to now is       48.0 secs

     Computing kpt #:    80
     total cpu time spent up to now is       48.6 secs

     Computing kpt #:    81
     total cpu time spent up to now is       49.1 secs

     Computing kpt #:    82
     total cpu time spent up to now is       49.7 secs

     Computing kpt #:    83
     total cpu time spent up to now is       50.3 secs

     Computing kpt #:    84
     total cpu time spent up to now is       50.8 secs

     Computing kpt #:    85
     total cpu time spent up to now is       51.4 secs

     Computing kpt #:    86
     total cpu time spent up to now is       52.0 secs

     Computing kpt #:    87
     total cpu time spent up to now is       52.5 secs

     Computing kpt #:    88
     total cpu time spent up to now is       53.1 secs

     Computing kpt #:    89
     total cpu time spent up to now is       53.6 secs

     Computing kpt #:    90
     total cpu time spent up to now is       54.2 secs

     Computing kpt #:    91
     total cpu time spent up to now is       54.8 secs

     Computing kpt #:    92
     total cpu time spent up to now is       55.4 secs

     Computing kpt #:    93
     total cpu time spent up to now is       55.9 secs

     Computing kpt #:    94
     total cpu time spent up to now is       56.5 secs

     Computing kpt #:    95
     total cpu time spent up to now is       57.1 secs

     Computing kpt #:    96
     total cpu time spent up to now is       57.7 secs

     Computing kpt #:    97
     total cpu time spent up to now is       58.3 secs

     Computing kpt #:    98
     total cpu time spent up to now is       59.0 secs

     Computing kpt #:    99
     total cpu time spent up to now is       59.8 secs

     Computing kpt #:   100
     total cpu time spent up to now is       60.8 secs

     Computing kpt #:   101
     total cpu time spent up to now is       61.6 secs

     ethr =  9.09E-11,  avg # of iterations = 33.1

     total cpu time spent up to now is       61.6 secs

     End of band structure calculation

          k = 0.0000 0.0000 0.0000 ( 11303 PWs)   bands (ev):

   -10.5545  -6.5848  -6.5847  -6.3251  -4.9055  -4.9055  -1.1317  -1.1317
     1.1450   2.1103

          k = 0.0000 0.0000 0.0212 ( 11295 PWs)   bands (ev):

   -10.5532  -6.5847  -6.5846  -6.3247  -4.9070  -4.9070  -1.1304  -1.1304
     1.1456   2.1109

          k = 0.0000 0.0000 0.0423 ( 11319 PWs)   bands (ev):

   -10.5493  -6.5842  -6.5841  -6.3236  -4.9113  -4.9113  -1.1264  -1.1264
     1.1473   2.1127

          k = 0.0000 0.0000 0.0635 ( 11319 PWs)   bands (ev):

   -10.5427  -6.5834  -6.5833  -6.3218  -4.9184  -4.9184  -1.1197  -1.1197
     1.1503   2.1156

          k = 0.0000 0.0000 0.0847 ( 11319 PWs)   bands (ev):

   -10.5336  -6.5823  -6.5822  -6.3191  -4.9283  -4.9283  -1.1103  -1.1103
     1.1544   2.1198

          k = 0.0000 0.0000 0.1058 ( 11319 PWs)   bands (ev):

   -10.5218  -6.5808  -6.5808  -6.3158  -4.9410  -4.9410  -1.0984  -1.0984
     1.1597   2.1251

          k = 0.0000 0.0000 0.1270 ( 11311 PWs)   bands (ev):

   -10.5074  -6.5791  -6.5790  -6.3117  -4.9564  -4.9564  -1.0839  -1.0839
     1.1662   2.1316

          k = 0.0000 0.0000 0.1482 ( 11315 PWs)   bands (ev):

   -10.4904  -6.5770  -6.5770  -6.3068  -4.9744  -4.9744  -1.0669  -1.0669
     1.1738   2.1392

          k = 0.0000 0.0000 0.1693 ( 11343 PWs)   bands (ev):

   -10.4708  -6.5747  -6.5746  -6.3013  -4.9949  -4.9949  -1.0475  -1.0475
     1.1827   2.1481

          k = 0.0000 0.0000 0.1905 ( 11351 PWs)   bands (ev):

   -10.4486  -6.5720  -6.5719  -6.2949  -5.0179  -5.0179  -1.0258  -1.0258
     1.1927   2.1581

          k = 0.0000 0.0000 0.2117 ( 11323 PWs)   bands (ev):

   -10.4239  -6.5690  -6.5689  -6.2879  -5.0433  -5.0433  -1.0017  -1.0017
     1.2039   2.1693

          k = 0.0000 0.0000 0.2328 ( 11319 PWs)   bands (ev):

   -10.3965  -6.5657  -6.5656  -6.2801  -5.0709  -5.0709  -0.9755  -0.9755
     1.2162   2.1817

          k = 0.0000 0.0000 0.2540 ( 11319 PWs)   bands (ev):

   -10.3666  -6.5621  -6.5620  -6.2715  -5.1007  -5.1007  -0.9472  -0.9472
     1.2298   2.1952

          k = 0.0000 0.0000 0.2752 ( 11327 PWs)   bands (ev):

   -10.3341  -6.5582  -6.5581  -6.2622  -5.1325  -5.1325  -0.9169  -0.9169
     1.2445   2.2100

          k = 0.0000 0.0000 0.2963 ( 11315 PWs)   bands (ev):

   -10.2991  -6.5540  -6.5539  -6.2522  -5.1662  -5.1662  -0.8846  -0.8846
     1.2604   2.2259

          k = 0.0000 0.0000 0.3175 ( 11323 PWs)   bands (ev):

   -10.2615  -6.5495  -6.5494  -6.2415  -5.2018  -5.2018  -0.8505  -0.8505
     1.2775   2.2430

          k = 0.0000 0.0000 0.3387 ( 11311 PWs)   bands (ev):

   -10.2214  -6.5447  -6.5446  -6.2300  -5.2391  -5.2391  -0.8146  -0.8146
     1.2957   2.2613

          k = 0.0000 0.0000 0.3598 ( 11311 PWs)   bands (ev):

   -10.1788  -6.5396  -6.5395  -6.2178  -5.2780  -5.2780  -0.7770  -0.7770
     1.3152   2.2807

          k = 0.0000 0.0000 0.3810 ( 11331 PWs)   bands (ev):

   -10.1337  -6.5343  -6.5342  -6.2049  -5.3184  -5.3184  -0.7378  -0.7378
     1.3358   2.3014

          k = 0.0000 0.0000 0.4022 ( 11339 PWs)   bands (ev):

   -10.0861  -6.5287  -6.5286  -6.1912  -5.3602  -5.3602  -0.6971  -0.6971
     1.3576   2.3232

          k = 0.0000 0.0000 0.4233 ( 11323 PWs)   bands (ev):

   -10.0361  -6.5228  -6.5227  -6.1768  -5.4033  -5.4033  -0.6549  -0.6549
     1.3806   2.3462

          k = 0.0000 0.0000 0.4445 ( 11323 PWs)   bands (ev):

    -9.9836  -6.5166  -6.5165  -6.1617  -5.4476  -5.4476  -0.6113  -0.6113
     1.4047   2.3704

          k = 0.0000 0.0000 0.4657 ( 11323 PWs)   bands (ev):

    -9.9287  -6.5102  -6.5101  -6.1458  -5.4929  -5.4929  -0.5664  -0.5664
     1.4300   2.3957

          k = 0.0000 0.0000 0.4868 ( 11315 PWs)   bands (ev):

    -9.8713  -6.5035  -6.5034  -6.1292  -5.5393  -5.5393  -0.5202  -0.5202
     1.4565   2.4223

          k = 0.0000 0.0000 0.5080 ( 11307 PWs)   bands (ev):

    -9.8116  -6.4965  -6.4964  -6.1119  -5.5866  -5.5866  -0.4727  -0.4727
     1.4842   2.4500

          k = 0.0000 0.0000 0.5292 ( 11299 PWs)   bands (ev):

    -9.7495  -6.4894  -6.4892  -6.0939  -5.6347  -5.6347  -0.4241  -0.4241
     1.5131   2.4789

          k = 0.0000 0.0000 0.5503 ( 11319 PWs)   bands (ev):

    -9.6851  -6.4819  -6.4818  -6.0752  -5.6835  -5.6835  -0.3744  -0.3744
     1.5431   2.5089

          k = 0.0000 0.0000 0.5715 ( 11303 PWs)   bands (ev):

    -9.6184  -6.4743  -6.4742  -6.0557  -5.7330  -5.7330  -0.3236  -0.3236
     1.5744   2.5402

          k = 0.0000 0.0000 0.5927 ( 11291 PWs)   bands (ev):

    -9.5494  -6.4664  -6.4663  -6.0355  -5.7831  -5.7831  -0.2718  -0.2718
     1.6068   2.5726

          k = 0.0000 0.0000 0.6138 ( 11291 PWs)   bands (ev):

    -9.4781  -6.4583  -6.4582  -6.0145  -5.8336  -5.8336  -0.2189  -0.2189
     1.6403   2.6062

          k = 0.0000 0.0000 0.6350 ( 11315 PWs)   bands (ev):

    -9.4046  -6.4500  -6.4499  -5.9929  -5.8847  -5.8847  -0.1650  -0.1650
     1.6751   2.6410

          k = 0.0000 0.0000 0.6562 ( 11323 PWs)   bands (ev):

    -9.3290  -6.4415  -6.4413  -5.9705  -5.9361  -5.9361  -0.1102  -0.1102
     1.7110   2.6770

          k = 0.0000 0.0000 0.6773 ( 11319 PWs)   bands (ev):

    -9.2512  -6.4328  -6.4326  -5.9877  -5.9877  -5.9473  -0.0545  -0.0545
     1.7482   2.7141

          k = 0.0000 0.0000 0.6985 ( 11307 PWs)   bands (ev):

    -9.1713  -6.4239  -6.4237  -6.0397  -6.0397  -5.9233   0.0021   0.0021
     1.7865   2.7524

          k = 0.0000 0.0000 0.7197 ( 11307 PWs)   bands (ev):

    -9.0893  -6.4148  -6.4146  -6.0918  -6.0918  -5.8986   0.0596   0.0596
     1.8260   2.7919

          k = 0.0000 0.0000 0.7408 ( 11315 PWs)   bands (ev):

    -9.0053  -6.4055  -6.4054  -6.1440  -6.1440  -5.8732   0.1180   0.1180
     1.8666   2.8326

          k = 0.0000 0.0000 0.7620 ( 11315 PWs)   bands (ev):

    -8.9194  -6.3961  -6.3959  -6.1963  -6.1963  -5.8469   0.1772   0.1772
     1.9085   2.8745

          k = 0.0000 0.0000 0.7832 ( 11271 PWs)   bands (ev):

    -8.8315  -6.3865  -6.3864  -6.2486  -6.2486  -5.8198   0.2372   0.2372
     1.9515   2.9175

          k = 0.0000 0.0000 0.8043 ( 11279 PWs)   bands (ev):

    -8.7418  -6.3768  -6.3766  -6.3009  -6.3009  -5.7919   0.2981   0.2981
     1.9957   2.9618

          k = 0.0000 0.0000 0.8255 ( 11275 PWs)   bands (ev):

    -8.6503  -6.3669  -6.3667  -6.3531  -6.3531  -5.7631   0.3597   0.3597
     2.0411   3.0072

          k = 0.0000 0.0000 0.8467 ( 11259 PWs)   bands (ev):

    -8.5572  -6.4051  -6.4051  -6.3569  -6.3567  -5.7334   0.4222   0.4222
     2.0877   3.0537

          k = 0.0000 0.0000 0.8678 ( 11259 PWs)   bands (ev):

    -8.4623  -6.4570  -6.4570  -6.3468  -6.3466  -5.7028   0.4855   0.4855
     2.1355   3.1015

          k = 0.0000 0.0000 0.8890 ( 11267 PWs)   bands (ev):

    -8.3659  -6.5087  -6.5087  -6.3365  -6.3364  -5.6712   0.5495   0.5495
     2.1845   3.1504

          k = 0.0000 0.0000 0.9102 ( 11259 PWs)   bands (ev):

    -8.2681  -6.5601  -6.5601  -6.3262  -6.3260  -5.6386   0.6143   0.6143
     2.2346   3.2006

          k = 0.0000 0.0000 0.9314 ( 11283 PWs)   bands (ev):

    -8.1689  -6.6112  -6.6112  -6.3158  -6.3156  -5.6049   0.6799   0.6799
     2.2859   3.2519

          k = 0.0000 0.0000 0.9525 ( 11291 PWs)   bands (ev):

    -8.0685  -6.6620  -6.6620  -6.3053  -6.3051  -5.5701   0.7463   0.7463
     2.3385   3.3043

          k = 0.0000 0.0000 0.9737 ( 11287 PWs)   bands (ev):

    -7.9669  -6.7124  -6.7124  -6.2947  -6.2945  -5.5341   0.8134   0.8134
     2.3922   3.3580

          k = 0.0000 0.0000 0.9949 ( 11283 PWs)   bands (ev):

    -7.8644  -6.7624  -6.7624  -6.2840  -6.2839  -5.4967   0.8813   0.8813
     2.4471   3.4128

          k = 0.0000 0.0000 1.0160 ( 11295 PWs)   bands (ev):

    -7.7610  -6.8120  -6.8120  -6.2733  -6.2732  -5.4580   0.9499   0.9499
     2.5032   3.4688

          k = 0.0000 0.0000 1.0372 ( 11303 PWs)   bands (ev):

    -7.6570  -6.8610  -6.8610  -6.2626  -6.2624  -5.4177   1.0193   1.0193
     2.5605   3.5260

          k = 0.0000 0.0000 1.0584 ( 11287 PWs)   bands (ev):

    -7.5525  -6.9096  -6.9096  -6.2518  -6.2516  -5.3758   1.0895   1.0895
     2.6189   3.5844

          k = 0.0000 0.0000 1.0795 ( 11287 PWs)   bands (ev):

    -7.4477  -6.9576  -6.9576  -6.2410  -6.2409  -5.3320   1.1604   1.1604
     2.6786   3.6440

          k = 0.0000 0.0000 1.1007 ( 11287 PWs)   bands (ev):

    -7.3430  -7.0051  -7.0051  -6.2302  -6.2300  -5.2863   1.2321   1.2321
     2.7395   3.7047

          k = 0.0000 0.0000 1.1219 ( 11283 PWs)   bands (ev):

    -7.2385  -7.0520  -7.0520  -6.2194  -6.2192  -5.2383   1.3045   1.3045
     2.8016   3.7666

          k = 0.0000 0.0000 1.1430 ( 11287 PWs)   bands (ev):

    -7.1344  -7.0982  -7.0982  -6.2086  -6.2084  -5.1880   1.3776   1.3776
     2.8649   3.8297

          k = 0.0000 0.0000 1.1642 ( 11291 PWs)   bands (ev):

    -7.1438  -7.1438  -7.0312  -6.1978  -6.1977  -5.1349   1.4515   1.4515
     2.9293   3.8940

          k = 0.0000 0.0000 1.1854 ( 11283 PWs)   bands (ev):

    -7.1888  -7.1888  -6.9292  -6.1871  -6.1869  -5.0790   1.5262   1.5262
     2.9950   3.9594

          k = 0.0000 0.0000 1.2065 ( 11275 PWs)   bands (ev):

    -7.2330  -7.2330  -6.8287  -6.1764  -6.1762  -5.0198   1.6016   1.6016
     3.0619   4.0261

          k = 0.0000 0.0000 1.2277 ( 11267 PWs)   bands (ev):

    -7.2765  -7.2765  -6.7300  -6.1657  -6.1656  -4.9571   1.6777   1.6777
     3.1300   4.0939

          k = 0.0000 0.0000 1.2489 ( 11275 PWs)   bands (ev):

    -7.3193  -7.3193  -6.6336  -6.1552  -6.1550  -4.8907   1.7545   1.7545
     3.1993   4.1629

          k = 0.0000 0.0000 1.2700 ( 11263 PWs)   bands (ev):

    -7.3613  -7.3613  -6.5397  -6.1447  -6.1445  -4.8201   1.8321   1.8321
     3.2699   4.2330

          k = 0.0000 0.0000 1.2912 ( 11263 PWs)   bands (ev):

    -7.4025  -7.4025  -6.4488  -6.1342  -6.1341  -4.7451   1.9104   1.9104
     3.3416   4.3044

          k = 0.0000 0.0000 1.3124 ( 11259 PWs)   bands (ev):

    -7.4429  -7.4429  -6.3612  -6.1239  -6.1237  -4.6654   1.9894   1.9894
     3.4146   4.3769

          k = 0.0000 0.0000 1.3335 ( 11271 PWs)   bands (ev):

    -7.4825  -7.4825  -6.2772  -6.1137  -6.1135  -4.5810   2.0690   2.0690
     3.4887   4.4506

          k = 0.0000 0.0000 1.3547 ( 11270 PWs)   bands (ev):

    -7.5212  -7.5212  -6.1968  -6.1036  -6.1034  -4.4916   2.1494   2.1494
     3.5641   4.5255

          k = 0.0000 0.0000 1.3759 ( 11254 PWs)   bands (ev):

    -7.5591  -7.5591  -6.1204  -6.0937  -6.0935  -4.3971   2.2305   2.2305
     3.6408   4.6015

          k = 0.0000 0.0000 1.3970 ( 11270 PWs)   bands (ev):

    -7.5961  -7.5961  -6.0838  -6.0836  -6.0480  -4.2977   2.3122   2.3122
     3.7186   4.6788

          k = 0.0000 0.0000 1.4182 ( 11254 PWs)   bands (ev):

    -7.6322  -7.6322  -6.0742  -6.0740  -5.9795  -4.1933   2.3945   2.3945
     3.7977   4.7572

          k = 0.0000 0.0000 1.4394 ( 11270 PWs)   bands (ev):

    -7.6673  -7.6673  -6.0647  -6.0645  -5.9149  -4.0841   2.4775   2.4775
     3.8780   4.8368

          k = 0.0000 0.0000 1.4605 ( 11258 PWs)   bands (ev):

    -7.7016  -7.7016  -6.0553  -6.0551  -5.8541  -3.9703   2.5611   2.5611
     3.9596   4.9175

          k = 0.0000 0.0000 1.4817 ( 11250 PWs)   bands (ev):

    -7.7349  -7.7349  -6.0462  -6.0460  -5.7970  -3.8522   2.6452   2.6452
     4.0423   4.9995

          k = 0.0000 0.0000 1.5029 ( 11242 PWs)   bands (ev):

    -7.7672  -7.7672  -6.0372  -6.0370  -5.7434  -3.7300   2.7299   2.7299
     4.1263   5.0826

          k = 0.0000 0.0000 1.5240 ( 11250 PWs)   bands (ev):

    -7.7986  -7.7986  -6.0284  -6.0282  -5.6930  -3.6040   2.8151   2.8151
     4.2116   5.1669

          k = 0.0000 0.0000 1.5452 ( 11254 PWs)   bands (ev):

    -7.8290  -7.8290  -6.0199  -6.0197  -5.6457  -3.4745   2.9008   2.9008
     4.2980   5.2524

          k = 0.0000 0.0000 1.5664 ( 11262 PWs)   bands (ev):

    -7.8583  -7.8583  -6.0115  -6.0114  -5.6013  -3.3419   2.9870   2.9870
     4.3857   5.3390

          k = 0.0000 0.0000 1.5875 ( 11254 PWs)   bands (ev):

    -7.8867  -7.8867  -6.0034  -6.0032  -5.5595  -3.2064   3.0735   3.0735
     4.4745   5.4269

          k = 0.0000 0.0000 1.6087 ( 11254 PWs)   bands (ev):

    -7.9141  -7.9141  -5.9956  -5.9954  -5.5203  -3.0683   3.1603   3.1603
     4.5645   5.5159

          k = 0.0000 0.0000 1.6299 ( 11254 PWs)   bands (ev):

    -7.9404  -7.9404  -5.9880  -5.9878  -5.4835  -2.9279   3.2474   3.2474
     4.6553   5.3518

          k = 0.0000 0.0000 1.6510 ( 11266 PWs)   bands (ev):

    -7.9656  -7.9656  -5.9806  -5.9804  -5.4489  -2.7856   3.3348   3.3348
     4.7465   5.1829

          k = 0.0000 0.0000 1.6722 ( 11274 PWs)   bands (ev):

    -7.9899  -7.9899  -5.9735  -5.9733  -5.4164  -2.6415   3.4222   3.4222
     4.8337   5.0199

          k = 0.0000 0.0000 1.6934 ( 11274 PWs)   bands (ev):

    -8.0130  -8.0130  -5.9667  -5.9665  -5.3858  -2.4959   3.5096   3.5096
     4.8216   4.9582

          k = 0.0000 0.0000 1.7145 ( 11286 PWs)   bands (ev):

    -8.0351  -8.0351  -5.9602  -5.9600  -5.3572  -2.3492   3.5969   3.5969
     4.6649   5.0433

          k = 0.0000 0.0000 1.7357 ( 11294 PWs)   bands (ev):

    -8.0561  -8.0561  -5.9539  -5.9537  -5.3303  -2.2015   3.6839   3.6839
     4.4997   5.1391

          k = 0.0000 0.0000 1.7569 ( 11286 PWs)   bands (ev):

    -8.0760  -8.0760  -5.9479  -5.9477  -5.3052  -2.0533   3.7706   3.7706
     4.3345   5.2375

          k = 0.0000 0.0000 1.7780 ( 11294 PWs)   bands (ev):

    -8.0948  -8.0948  -5.9423  -5.9421  -5.2817  -1.9048   3.8566   3.8566
     4.1701   5.3376

          k = 0.0000 0.0000 1.7992 ( 11302 PWs)   bands (ev):

    -8.1125  -8.1125  -5.9369  -5.9367  -5.2598  -1.7564   3.9418   3.9418
     4.0072   5.4392

          k = 0.0000 0.0000 1.8204 ( 11294 PWs)   bands (ev):

    -8.1291  -8.1291  -5.9319  -5.9317  -5.2395  -1.6085   3.8460   4.0260
     4.0260   5.5422

          k = 0.0000 0.0000 1.8415 ( 11294 PWs)   bands (ev):

    -8.1446  -8.1446  -5.9272  -5.9270  -5.2207  -1.4614   3.6870   4.1088
     4.1088   5.6466

          k = 0.0000 0.0000 1.8627 ( 11290 PWs)   bands (ev):

    -8.1589  -8.1589  -5.9228  -5.9226  -5.2033  -1.3158   3.5307   4.1898
     4.1898   5.7523

          k = 0.0000 0.0000 1.8839 ( 11282 PWs)   bands (ev):

    -8.1721  -8.1721  -5.9188  -5.9186  -5.1875  -1.1723   3.3775   4.2687
     4.2687   5.8592

          k = 0.0000 0.0000 1.9050 ( 11282 PWs)   bands (ev):

    -8.1842  -8.1842  -5.9150  -5.9149  -5.1731  -1.0316   3.2282   4.3449
     4.3449   5.9675

          k = 0.0000 0.0000 1.9262 ( 11290 PWs)   bands (ev):

    -8.1952  -8.1952  -5.9117  -5.9115  -5.1601  -0.8946   3.0836   4.4179
     4.4179   6.0770

          k = 0.0000 0.0000 1.9474 ( 11306 PWs)   bands (ev):

    -8.2050  -8.2050  -5.9086  -5.9084  -5.1485  -0.7625   2.9449   4.4869
     4.4869   6.1877

          k = 0.0000 0.0000 1.9685 ( 11298 PWs)   bands (ev):

    -8.2137  -8.2137  -5.9060  -5.9058  -5.1383  -0.6368   2.8134   4.5512
     4.5512   6.2996

          k = 0.0000 0.0000 1.9897 ( 11282 PWs)   bands (ev):

    -8.2212  -8.2212  -5.9036  -5.9034  -5.1294  -0.5192   2.6909   4.6100
     4.6100   6.4126

          k = 0.0000 0.0000 2.0109 ( 11270 PWs)   bands (ev):

    -8.2275  -8.2275  -5.9016  -5.9014  -5.1219  -0.4119   2.5795   4.6622
     4.6622   6.5266

          k = 0.0000 0.0000 2.0320 ( 11254 PWs)   bands (ev):

    -8.2327  -8.2327  -5.9000  -5.8998  -5.1159  -0.3176   2.4820   4.7068
     4.7068   6.6413

          k = 0.0000 0.0000 2.0532 ( 11242 PWs)   bands (ev):

    -8.2368  -8.2368  -5.8987  -5.8986  -5.1111  -0.2394   2.4012   4.7429
     4.7429   6.7563

          k = 0.0000 0.0000 2.0744 ( 11234 PWs)   bands (ev):

    -8.2397  -8.2397  -5.8978  -5.8977  -5.1077  -0.1803   2.3403   4.7694
     4.7694   6.8699

          k = 0.0000 0.0000 2.0955 ( 11230 PWs)   bands (ev):

    -8.2414  -8.2414  -5.8973  -5.8971  -5.1057  -0.1435   2.3024   4.7857
     4.7857   6.9762

          k = 0.0000 0.0000-2.1167 ( 11226 PWs)   bands (ev):

    -8.2420  -8.2420  -5.8971  -5.8969  -5.1050  -0.1309   2.2895   4.7912
     4.7912   7.0227

     Writing output data file gold.save
 
     init_run     :      0.61s CPU      0.63s WALL (       1 calls)
     electrons    :     60.31s CPU     60.75s WALL (       1 calls)

     Called by init_run:
     wfcinit      :      0.00s CPU      0.00s WALL (       1 calls)
     potinit      :      0.07s CPU      0.07s WALL (       1 calls)

     Called by electrons:
     c_bands      :     60.30s CPU     60.75s WALL (       1 calls)
     v_of_rho     :      0.05s CPU      0.05s WALL (       1 calls)
     v_h          :      0.00s CPU      0.00s WALL (       1 calls)
     v_xc         :      0.05s CPU      0.05s WALL (       1 calls)

     Called by c_bands:
     init_us_2    :      0.01s CPU      0.07s WALL (     101 calls)
     cegterg      :     56.80s CPU     57.25s WALL (     211 calls)

     Called by sum_band:

     Called by *egterg:
     h_psi        :     50.29s CPU     51.20s WALL (    3656 calls)
     g_psi        :      0.83s CPU      0.64s WALL (    3344 calls)
     cdiaghg      :      1.66s CPU      1.79s WALL (    3445 calls)
     cegterg:over :      2.73s CPU      2.76s WALL (    3344 calls)
     cegterg:upda :      2.08s CPU      2.13s WALL (    3344 calls)
     cegterg:last :      1.08s CPU      0.97s WALL (     517 calls)

     Called by h_psi:
     h_psi:vloc   :     48.74s CPU     49.77s WALL (    3656 calls)
     h_psi:vnl    :      1.29s CPU      1.21s WALL (    3656 calls)
     add_vuspsi   :      0.48s CPU      0.45s WALL (    3656 calls)

     General routines
     calbec       :      0.78s CPU      0.75s WALL (    3656 calls)
     fft          :      0.01s CPU      0.03s WALL (      11 calls)
     fftw         :     44.15s CPU     44.81s WALL (   33086 calls)
 
     Parallel routines
     fft_scatter  :     12.26s CPU     11.82s WALL (   33097 calls)
 
     PWSCF        :  1m 2.74s CPU     1m 3.56s WALL

 
   This run was terminated on:  19: 9:30  31Jul2013            

=------------------------------------------------------------------------------=
   JOB DONE.
=------------------------------------------------------------------------------=
