
     Program PWSCF v.5.0.2 (svn rev. 10303M) starts on  1Aug2013 at 11: 1:10 

     This program is part of the open-source Quantum ESPRESSO suite
     for quantum simulation of materials; please cite
         "P. Giannozzi et al., J. Phys.:Condens. Matter 21 395502 (2009);
          URL http://www.quantum-espresso.org", 
     in publications or presentations arising from this work. More details at
     http://www.quantum-espresso.org/quote

     Parallel version (MPI & OpenMP), running on       6 processor cores
     Number of MPI processes:                 6
     Threads/MPI process:                     1
     R & G space division:  proc/nbgrp/npool/nimage =       6
     Reading input from /home/ferretti/want/tests/test06/bands_dft_Au.in

     Current dimensions of program PWSCF are:
     Max number of different atomic species (ntypx) = 10
     Max number of k-points (npk) =  40000
     Max angular momentum in pseudopotentials (lmaxx) =  3

     Atomic positions and unit cell read from directory:
     ./SCRATCH/gold.save/
 

     Subspace diagonalization in iterative solution of the eigenvalue problem:
     a serial algorithm will be used

 
     Parallelization info
     --------------------
     sticks:   dense  smooth     PW     G-vecs:    dense   smooth      PW
     Min        1061    1061    316                15056    15056    2465
     Max        1063    1063    317                15057    15057    2466
     Sum        6369    6369   1901                90341    90341   14791
 


     bravais-lattice index     =            8
     lattice parameter (alat)  =      20.0000  a.u.
     unit-cell volume          =    1889.7280 (a.u.)^3
     number of atoms/cell      =            1
     number of atomic types    =            1
     number of electrons       =        11.00
     number of Kohn-Sham states=           10
     kinetic-energy cutoff     =      50.0000  Ry
     charge density cutoff     =     200.0000  Ry
     Exchange-correlation      =  SLA  PW   GGX  GGC ( 1 4 2 2 0)
     EXX-fraction              =        0.00

     celldm(1)=  20.000000  celldm(2)=   1.000000  celldm(3)=   0.236216
     celldm(4)=   0.000000  celldm(5)=   0.000000  celldm(6)=   0.000000

     crystal axes: (cart. coord. in units of alat)
               a(1) = (   1.000000   0.000000   0.000000 )  
               a(2) = (   0.000000   1.000000   0.000000 )  
               a(3) = (   0.000000   0.000000   0.236216 )  

     reciprocal axes: (cart. coord. in units 2 pi/alat)
               b(1) = (  1.000000  0.000000  0.000000 )  
               b(2) = (  0.000000  1.000000  0.000000 )  
               b(3) = (  0.000000  0.000000  4.233413 )  


     PseudoPot. # 1 for Au read from file:
     ../pseudo/Au11pw91.mt.UPF
     MD5 check sum: e270e13d0e45fa10676aee720c7982d9
     Pseudo is Norm-conserving + core correction, Zval = 11.0
     Generated by new atomic code, or converted to UPF format
     Using radial grid of  331 points,  2 beta functions with: 
                l(1) =   1
                l(2) =   2

     atomic species   valence    mass     pseudopotential
        Au            11.00   196.96650     Au( 1.00)

      8 Sym. Ops. (no inversion) found
          (note:  8 additional sym.ops. were found but ignored
           their fractional translations are incommensurate with FFT grid)

                                    s                        frac. trans.

      isym =  1     identity                                     

 cryst.   s( 1) = (     1          0          0      )
                  (     0          1          0      )
                  (     0          0          1      )

 cart.    s( 1) = (  1.0000000  0.0000000  0.0000000 )
                  (  0.0000000  1.0000000  0.0000000 )
                  (  0.0000000  0.0000000  1.0000000 )


      isym =  2     180 deg rotation - cart. axis [0,0,1]        

 cryst.   s( 2) = (    -1          0          0      )
                  (     0         -1          0      )
                  (     0          0          1      )

 cart.    s( 2) = ( -1.0000000  0.0000000  0.0000000 )
                  (  0.0000000 -1.0000000  0.0000000 )
                  (  0.0000000  0.0000000  1.0000000 )


      isym =  3      90 deg rotation - cart. axis [0,0,-1]       

 cryst.   s( 3) = (     0         -1          0      )
                  (     1          0          0      )
                  (     0          0          1      )

 cart.    s( 3) = (  0.0000000  1.0000000  0.0000000 )
                  ( -1.0000000  0.0000000  0.0000000 )
                  (  0.0000000  0.0000000  1.0000000 )


      isym =  4      90 deg rotation - cart. axis [0,0,1]        

 cryst.   s( 4) = (     0          1          0      )
                  (    -1          0          0      )
                  (     0          0          1      )

 cart.    s( 4) = (  0.0000000 -1.0000000  0.0000000 )
                  (  1.0000000  0.0000000  0.0000000 )
                  (  0.0000000  0.0000000  1.0000000 )


      isym =  5     inv. 180 deg rotation - cart. axis [0,1,0]   

 cryst.   s( 5) = (     1          0          0      )
                  (     0         -1          0      )
                  (     0          0          1      )

 cart.    s( 5) = (  1.0000000  0.0000000  0.0000000 )
                  (  0.0000000 -1.0000000  0.0000000 )
                  (  0.0000000  0.0000000  1.0000000 )


      isym =  6     inv. 180 deg rotation - cart. axis [1,0,0]   

 cryst.   s( 6) = (    -1          0          0      )
                  (     0          1          0      )
                  (     0          0          1      )

 cart.    s( 6) = ( -1.0000000  0.0000000  0.0000000 )
                  (  0.0000000  1.0000000  0.0000000 )
                  (  0.0000000  0.0000000  1.0000000 )


      isym =  7     inv. 180 deg rotation - cart. axis [1,1,0]   

 cryst.   s( 7) = (     0         -1          0      )
                  (    -1          0          0      )
                  (     0          0          1      )

 cart.    s( 7) = (  0.0000000 -1.0000000  0.0000000 )
                  ( -1.0000000  0.0000000  0.0000000 )
                  (  0.0000000  0.0000000  1.0000000 )


      isym =  8     inv. 180 deg rotation - cart. axis [1,-1,0]  

 cryst.   s( 8) = (     0          1          0      )
                  (     1          0          0      )
                  (     0          0          1      )

 cart.    s( 8) = (  0.0000000  1.0000000  0.0000000 )
                  (  1.0000000  0.0000000  0.0000000 )
                  (  0.0000000  0.0000000  1.0000000 )


     point group C_4v (4mm) 
     there are  5 classes
     the character table:

       E     2C4   C2    2s_v  2s_d 
A_1    1.00  1.00  1.00  1.00  1.00
A_2    1.00  1.00  1.00 -1.00 -1.00
B_1    1.00 -1.00  1.00  1.00 -1.00
B_2    1.00 -1.00  1.00 -1.00  1.00
E      2.00  0.00 -2.00  0.00  0.00

     the symmetry operations in each class:
     E        1
     C2       2
     2C4      3    4
     2s_v     5    6
     2s_d     7    8

   Cartesian axes

     site n.     atom                  positions (alat units)
         1           Au  tau(   1) = (   0.0000000   0.0000000   0.0472432  )

   Crystallographic axes

     site n.     atom                  positions (cryst. coord.)
         1           Au  tau(   1) = (  0.0000000  0.0000000  0.1999998  )

     number of k points=   101  gaussian smearing, width (Ry)=  0.0100
                       cart. coord. in units 2pi/alat
        k(    1) = (   0.0000000   0.0000000   0.0000000), wk =   0.0100000
        k(    2) = (   0.0000000   0.0000000   0.0211671), wk =   0.0200000
        k(    3) = (   0.0000000   0.0000000   0.0423341), wk =   0.0200000
        k(    4) = (   0.0000000   0.0000000   0.0635012), wk =   0.0200000
        k(    5) = (   0.0000000   0.0000000   0.0846683), wk =   0.0200000
        k(    6) = (   0.0000000   0.0000000   0.1058353), wk =   0.0200000
        k(    7) = (   0.0000000   0.0000000   0.1270024), wk =   0.0200000
        k(    8) = (   0.0000000   0.0000000   0.1481695), wk =   0.0200000
        k(    9) = (   0.0000000   0.0000000   0.1693365), wk =   0.0200000
        k(   10) = (   0.0000000   0.0000000   0.1905036), wk =   0.0200000
        k(   11) = (   0.0000000   0.0000000   0.2116707), wk =   0.0200000
        k(   12) = (   0.0000000   0.0000000   0.2328377), wk =   0.0200000
        k(   13) = (   0.0000000   0.0000000   0.2540048), wk =   0.0200000
        k(   14) = (   0.0000000   0.0000000   0.2751719), wk =   0.0200000
        k(   15) = (   0.0000000   0.0000000   0.2963389), wk =   0.0200000
        k(   16) = (   0.0000000   0.0000000   0.3175060), wk =   0.0200000
        k(   17) = (   0.0000000   0.0000000   0.3386731), wk =   0.0200000
        k(   18) = (   0.0000000   0.0000000   0.3598401), wk =   0.0200000
        k(   19) = (   0.0000000   0.0000000   0.3810072), wk =   0.0200000
        k(   20) = (   0.0000000   0.0000000   0.4021743), wk =   0.0200000
        k(   21) = (   0.0000000   0.0000000   0.4233413), wk =   0.0200000
        k(   22) = (   0.0000000   0.0000000   0.4445084), wk =   0.0200000
        k(   23) = (   0.0000000   0.0000000   0.4656755), wk =   0.0200000
        k(   24) = (   0.0000000   0.0000000   0.4868426), wk =   0.0200000
        k(   25) = (   0.0000000   0.0000000   0.5080096), wk =   0.0200000
        k(   26) = (   0.0000000   0.0000000   0.5291767), wk =   0.0200000
        k(   27) = (   0.0000000   0.0000000   0.5503438), wk =   0.0200000
        k(   28) = (   0.0000000   0.0000000   0.5715108), wk =   0.0200000
        k(   29) = (   0.0000000   0.0000000   0.5926779), wk =   0.0200000
        k(   30) = (   0.0000000   0.0000000   0.6138450), wk =   0.0200000
        k(   31) = (   0.0000000   0.0000000   0.6350120), wk =   0.0200000
        k(   32) = (   0.0000000   0.0000000   0.6561791), wk =   0.0200000
        k(   33) = (   0.0000000   0.0000000   0.6773462), wk =   0.0200000
        k(   34) = (   0.0000000   0.0000000   0.6985132), wk =   0.0200000
        k(   35) = (   0.0000000   0.0000000   0.7196803), wk =   0.0200000
        k(   36) = (   0.0000000   0.0000000   0.7408474), wk =   0.0200000
        k(   37) = (   0.0000000   0.0000000   0.7620144), wk =   0.0200000
        k(   38) = (   0.0000000   0.0000000   0.7831815), wk =   0.0200000
        k(   39) = (   0.0000000   0.0000000   0.8043486), wk =   0.0200000
        k(   40) = (   0.0000000   0.0000000   0.8255156), wk =   0.0200000
        k(   41) = (   0.0000000   0.0000000   0.8466827), wk =   0.0200000
        k(   42) = (   0.0000000   0.0000000   0.8678498), wk =   0.0200000
        k(   43) = (   0.0000000   0.0000000   0.8890168), wk =   0.0200000
        k(   44) = (   0.0000000   0.0000000   0.9101839), wk =   0.0200000
        k(   45) = (   0.0000000   0.0000000   0.9313510), wk =   0.0200000
        k(   46) = (   0.0000000   0.0000000   0.9525180), wk =   0.0200000
        k(   47) = (   0.0000000   0.0000000   0.9736851), wk =   0.0200000
        k(   48) = (   0.0000000   0.0000000   0.9948522), wk =   0.0200000
        k(   49) = (   0.0000000   0.0000000   1.0160192), wk =   0.0200000
        k(   50) = (   0.0000000   0.0000000   1.0371863), wk =   0.0200000
        k(   51) = (   0.0000000   0.0000000   1.0583534), wk =   0.0200000
        k(   52) = (   0.0000000   0.0000000   1.0795204), wk =   0.0200000
        k(   53) = (   0.0000000   0.0000000   1.1006875), wk =   0.0200000
        k(   54) = (   0.0000000   0.0000000   1.1218546), wk =   0.0200000
        k(   55) = (   0.0000000   0.0000000   1.1430216), wk =   0.0200000
        k(   56) = (   0.0000000   0.0000000   1.1641887), wk =   0.0200000
        k(   57) = (   0.0000000   0.0000000   1.1853558), wk =   0.0200000
        k(   58) = (   0.0000000   0.0000000   1.2065228), wk =   0.0200000
        k(   59) = (   0.0000000   0.0000000   1.2276899), wk =   0.0200000
        k(   60) = (   0.0000000   0.0000000   1.2488570), wk =   0.0200000
        k(   61) = (   0.0000000   0.0000000   1.2700240), wk =   0.0200000
        k(   62) = (   0.0000000   0.0000000   1.2911911), wk =   0.0200000
        k(   63) = (   0.0000000   0.0000000   1.3123582), wk =   0.0200000
        k(   64) = (   0.0000000   0.0000000   1.3335252), wk =   0.0200000
        k(   65) = (   0.0000000   0.0000000   1.3546923), wk =   0.0200000
        k(   66) = (   0.0000000   0.0000000   1.3758594), wk =   0.0200000
        k(   67) = (   0.0000000   0.0000000   1.3970265), wk =   0.0200000
        k(   68) = (   0.0000000   0.0000000   1.4181935), wk =   0.0200000
        k(   69) = (   0.0000000   0.0000000   1.4393606), wk =   0.0200000
        k(   70) = (   0.0000000   0.0000000   1.4605277), wk =   0.0200000
        k(   71) = (   0.0000000   0.0000000   1.4816947), wk =   0.0200000
        k(   72) = (   0.0000000   0.0000000   1.5028618), wk =   0.0200000
        k(   73) = (   0.0000000   0.0000000   1.5240289), wk =   0.0200000
        k(   74) = (   0.0000000   0.0000000   1.5451959), wk =   0.0200000
        k(   75) = (   0.0000000   0.0000000   1.5663630), wk =   0.0200000
        k(   76) = (   0.0000000   0.0000000   1.5875301), wk =   0.0200000
        k(   77) = (   0.0000000   0.0000000   1.6086971), wk =   0.0200000
        k(   78) = (   0.0000000   0.0000000   1.6298642), wk =   0.0200000
        k(   79) = (   0.0000000   0.0000000   1.6510313), wk =   0.0200000
        k(   80) = (   0.0000000   0.0000000   1.6721983), wk =   0.0200000
        k(   81) = (   0.0000000   0.0000000   1.6933654), wk =   0.0200000
        k(   82) = (   0.0000000   0.0000000   1.7145325), wk =   0.0200000
        k(   83) = (   0.0000000   0.0000000   1.7356995), wk =   0.0200000
        k(   84) = (   0.0000000   0.0000000   1.7568666), wk =   0.0200000
        k(   85) = (   0.0000000   0.0000000   1.7780337), wk =   0.0200000
        k(   86) = (   0.0000000   0.0000000   1.7992007), wk =   0.0200000
        k(   87) = (   0.0000000   0.0000000   1.8203678), wk =   0.0200000
        k(   88) = (   0.0000000   0.0000000   1.8415349), wk =   0.0200000
        k(   89) = (   0.0000000   0.0000000   1.8627019), wk =   0.0200000
        k(   90) = (   0.0000000   0.0000000   1.8838690), wk =   0.0200000
        k(   91) = (   0.0000000   0.0000000   1.9050361), wk =   0.0200000
        k(   92) = (   0.0000000   0.0000000   1.9262031), wk =   0.0200000
        k(   93) = (   0.0000000   0.0000000   1.9473702), wk =   0.0200000
        k(   94) = (   0.0000000   0.0000000   1.9685373), wk =   0.0200000
        k(   95) = (   0.0000000   0.0000000   1.9897043), wk =   0.0200000
        k(   96) = (   0.0000000   0.0000000   2.0108714), wk =   0.0200000
        k(   97) = (   0.0000000   0.0000000   2.0320385), wk =   0.0200000
        k(   98) = (   0.0000000   0.0000000   2.0532055), wk =   0.0200000
        k(   99) = (   0.0000000   0.0000000   2.0743726), wk =   0.0200000
        k(  100) = (   0.0000000   0.0000000   2.0955397), wk =   0.0200000
        k(  101) = (   0.0000000   0.0000000  -2.1167067), wk =   0.0100000

                       cryst. coord.
        k(    1) = (   0.0000000   0.0000000   0.0000000), wk =   0.0100000
        k(    2) = (   0.0000000   0.0000000   0.0050000), wk =   0.0200000
        k(    3) = (   0.0000000   0.0000000   0.0100000), wk =   0.0200000
        k(    4) = (   0.0000000   0.0000000   0.0150000), wk =   0.0200000
        k(    5) = (   0.0000000   0.0000000   0.0200000), wk =   0.0200000
        k(    6) = (   0.0000000   0.0000000   0.0250000), wk =   0.0200000
        k(    7) = (   0.0000000   0.0000000   0.0300000), wk =   0.0200000
        k(    8) = (   0.0000000   0.0000000   0.0350000), wk =   0.0200000
        k(    9) = (   0.0000000   0.0000000   0.0400000), wk =   0.0200000
        k(   10) = (   0.0000000   0.0000000   0.0450000), wk =   0.0200000
        k(   11) = (   0.0000000   0.0000000   0.0500000), wk =   0.0200000
        k(   12) = (   0.0000000   0.0000000   0.0550000), wk =   0.0200000
        k(   13) = (   0.0000000   0.0000000   0.0600000), wk =   0.0200000
        k(   14) = (   0.0000000   0.0000000   0.0650000), wk =   0.0200000
        k(   15) = (   0.0000000   0.0000000   0.0700000), wk =   0.0200000
        k(   16) = (   0.0000000   0.0000000   0.0750000), wk =   0.0200000
        k(   17) = (   0.0000000   0.0000000   0.0800000), wk =   0.0200000
        k(   18) = (   0.0000000   0.0000000   0.0850000), wk =   0.0200000
        k(   19) = (   0.0000000   0.0000000   0.0900000), wk =   0.0200000
        k(   20) = (   0.0000000   0.0000000   0.0950000), wk =   0.0200000
        k(   21) = (   0.0000000   0.0000000   0.1000000), wk =   0.0200000
        k(   22) = (   0.0000000   0.0000000   0.1050000), wk =   0.0200000
        k(   23) = (   0.0000000   0.0000000   0.1100000), wk =   0.0200000
        k(   24) = (   0.0000000   0.0000000   0.1150000), wk =   0.0200000
        k(   25) = (   0.0000000   0.0000000   0.1200000), wk =   0.0200000
        k(   26) = (   0.0000000   0.0000000   0.1250000), wk =   0.0200000
        k(   27) = (   0.0000000   0.0000000   0.1300000), wk =   0.0200000
        k(   28) = (   0.0000000   0.0000000   0.1350000), wk =   0.0200000
        k(   29) = (   0.0000000   0.0000000   0.1400000), wk =   0.0200000
        k(   30) = (   0.0000000   0.0000000   0.1450000), wk =   0.0200000
        k(   31) = (   0.0000000   0.0000000   0.1500000), wk =   0.0200000
        k(   32) = (   0.0000000   0.0000000   0.1550000), wk =   0.0200000
        k(   33) = (   0.0000000   0.0000000   0.1600000), wk =   0.0200000
        k(   34) = (   0.0000000   0.0000000   0.1650000), wk =   0.0200000
        k(   35) = (   0.0000000   0.0000000   0.1700000), wk =   0.0200000
        k(   36) = (   0.0000000   0.0000000   0.1750000), wk =   0.0200000
        k(   37) = (   0.0000000   0.0000000   0.1800000), wk =   0.0200000
        k(   38) = (   0.0000000   0.0000000   0.1850000), wk =   0.0200000
        k(   39) = (   0.0000000   0.0000000   0.1900000), wk =   0.0200000
        k(   40) = (   0.0000000   0.0000000   0.1950000), wk =   0.0200000
        k(   41) = (   0.0000000   0.0000000   0.2000000), wk =   0.0200000
        k(   42) = (   0.0000000   0.0000000   0.2050000), wk =   0.0200000
        k(   43) = (   0.0000000   0.0000000   0.2100000), wk =   0.0200000
        k(   44) = (   0.0000000   0.0000000   0.2150000), wk =   0.0200000
        k(   45) = (   0.0000000   0.0000000   0.2200000), wk =   0.0200000
        k(   46) = (   0.0000000   0.0000000   0.2250000), wk =   0.0200000
        k(   47) = (   0.0000000   0.0000000   0.2300000), wk =   0.0200000
        k(   48) = (   0.0000000   0.0000000   0.2350000), wk =   0.0200000
        k(   49) = (   0.0000000   0.0000000   0.2400000), wk =   0.0200000
        k(   50) = (   0.0000000   0.0000000   0.2450000), wk =   0.0200000
        k(   51) = (   0.0000000   0.0000000   0.2500000), wk =   0.0200000
        k(   52) = (   0.0000000   0.0000000   0.2550000), wk =   0.0200000
        k(   53) = (   0.0000000   0.0000000   0.2600000), wk =   0.0200000
        k(   54) = (   0.0000000   0.0000000   0.2650000), wk =   0.0200000
        k(   55) = (   0.0000000   0.0000000   0.2700000), wk =   0.0200000
        k(   56) = (   0.0000000   0.0000000   0.2750000), wk =   0.0200000
        k(   57) = (   0.0000000   0.0000000   0.2800000), wk =   0.0200000
        k(   58) = (   0.0000000   0.0000000   0.2850000), wk =   0.0200000
        k(   59) = (   0.0000000   0.0000000   0.2900000), wk =   0.0200000
        k(   60) = (   0.0000000   0.0000000   0.2950000), wk =   0.0200000
        k(   61) = (   0.0000000   0.0000000   0.3000000), wk =   0.0200000
        k(   62) = (   0.0000000   0.0000000   0.3050000), wk =   0.0200000
        k(   63) = (   0.0000000   0.0000000   0.3100000), wk =   0.0200000
        k(   64) = (   0.0000000   0.0000000   0.3150000), wk =   0.0200000
        k(   65) = (   0.0000000   0.0000000   0.3200000), wk =   0.0200000
        k(   66) = (   0.0000000   0.0000000   0.3250000), wk =   0.0200000
        k(   67) = (   0.0000000   0.0000000   0.3300000), wk =   0.0200000
        k(   68) = (   0.0000000   0.0000000   0.3350000), wk =   0.0200000
        k(   69) = (   0.0000000   0.0000000   0.3400000), wk =   0.0200000
        k(   70) = (   0.0000000   0.0000000   0.3450000), wk =   0.0200000
        k(   71) = (   0.0000000   0.0000000   0.3500000), wk =   0.0200000
        k(   72) = (   0.0000000   0.0000000   0.3550000), wk =   0.0200000
        k(   73) = (   0.0000000   0.0000000   0.3600000), wk =   0.0200000
        k(   74) = (   0.0000000   0.0000000   0.3650000), wk =   0.0200000
        k(   75) = (   0.0000000   0.0000000   0.3700000), wk =   0.0200000
        k(   76) = (   0.0000000   0.0000000   0.3750000), wk =   0.0200000
        k(   77) = (   0.0000000   0.0000000   0.3800000), wk =   0.0200000
        k(   78) = (   0.0000000   0.0000000   0.3850000), wk =   0.0200000
        k(   79) = (   0.0000000   0.0000000   0.3900000), wk =   0.0200000
        k(   80) = (   0.0000000   0.0000000   0.3950000), wk =   0.0200000
        k(   81) = (   0.0000000   0.0000000   0.4000000), wk =   0.0200000
        k(   82) = (   0.0000000   0.0000000   0.4050000), wk =   0.0200000
        k(   83) = (   0.0000000   0.0000000   0.4100000), wk =   0.0200000
        k(   84) = (   0.0000000   0.0000000   0.4150000), wk =   0.0200000
        k(   85) = (   0.0000000   0.0000000   0.4200000), wk =   0.0200000
        k(   86) = (   0.0000000   0.0000000   0.4250000), wk =   0.0200000
        k(   87) = (   0.0000000   0.0000000   0.4300000), wk =   0.0200000
        k(   88) = (   0.0000000   0.0000000   0.4350000), wk =   0.0200000
        k(   89) = (   0.0000000   0.0000000   0.4400000), wk =   0.0200000
        k(   90) = (   0.0000000   0.0000000   0.4450000), wk =   0.0200000
        k(   91) = (   0.0000000   0.0000000   0.4500000), wk =   0.0200000
        k(   92) = (   0.0000000   0.0000000   0.4550000), wk =   0.0200000
        k(   93) = (   0.0000000   0.0000000   0.4600000), wk =   0.0200000
        k(   94) = (   0.0000000   0.0000000   0.4650000), wk =   0.0200000
        k(   95) = (   0.0000000   0.0000000   0.4700000), wk =   0.0200000
        k(   96) = (   0.0000000   0.0000000   0.4750000), wk =   0.0200000
        k(   97) = (   0.0000000   0.0000000   0.4800000), wk =   0.0200000
        k(   98) = (   0.0000000   0.0000000   0.4850000), wk =   0.0200000
        k(   99) = (   0.0000000   0.0000000   0.4900000), wk =   0.0200000
        k(  100) = (   0.0000000   0.0000000   0.4950000), wk =   0.0200000
        k(  101) = (   0.0000000   0.0000000  -0.5000000), wk =   0.0100000

     Dense  grid:    90341 G-vectors     FFT dimensions: (  96,  96,  24)

     Largest allocated arrays     est. size (Mb)     dimensions
        Kohn-Sham Wavefunctions         0.29 Mb     (    1881,   10)
        NL pseudopotentials             0.23 Mb     (    1881,    8)
        Each V/rho on FFT grid          0.56 Mb     (   36864)
        Each G-vector array             0.11 Mb     (   15057)
        G-vector shells                 0.03 Mb     (    3914)
     Largest temporary arrays     est. size (Mb)     dimensions
        Auxiliary wavefunctions         1.15 Mb     (    1881,   40)
        Each subspace H/S matrix        0.02 Mb     (      40,   40)
        Each <psi_i|beta_j> matrix      0.00 Mb     (       8,   10)

     Check: negative/imaginary core charge=   -0.000021    0.000000

     The potential is recalculated from file :
     ./SCRATCH/gold.save/charge-density.dat

     Starting wfc are    9 randomized atomic wfcs

     Band Structure Calculation
     Davidson diagonalization with overlap

     Computing kpt #:     1
     total cpu time spent up to now is        1.4 secs

     Computing kpt #:     2
     total cpu time spent up to now is        2.0 secs

     Computing kpt #:     3
     total cpu time spent up to now is        2.6 secs

     Computing kpt #:     4
     total cpu time spent up to now is        3.2 secs

     Computing kpt #:     5
     total cpu time spent up to now is        3.8 secs

     Computing kpt #:     6
     total cpu time spent up to now is        4.3 secs

     Computing kpt #:     7
     total cpu time spent up to now is        4.9 secs

     Computing kpt #:     8
     total cpu time spent up to now is        5.5 secs

     Computing kpt #:     9
     total cpu time spent up to now is        6.1 secs

     Computing kpt #:    10
     total cpu time spent up to now is        6.7 secs

     Computing kpt #:    11
     total cpu time spent up to now is        7.3 secs

     Computing kpt #:    12
     total cpu time spent up to now is        7.9 secs

     Computing kpt #:    13
     total cpu time spent up to now is        8.4 secs

     Computing kpt #:    14
     total cpu time spent up to now is        9.0 secs

     Computing kpt #:    15
     total cpu time spent up to now is        9.6 secs

     Computing kpt #:    16
     total cpu time spent up to now is       10.2 secs

     Computing kpt #:    17
     total cpu time spent up to now is       10.8 secs

     Computing kpt #:    18
     total cpu time spent up to now is       11.4 secs

     Computing kpt #:    19
     total cpu time spent up to now is       12.0 secs

     Computing kpt #:    20
     total cpu time spent up to now is       12.6 secs

     Computing kpt #:    21
     total cpu time spent up to now is       13.2 secs

     Computing kpt #:    22
     total cpu time spent up to now is       13.7 secs

     Computing kpt #:    23
     total cpu time spent up to now is       14.3 secs

     Computing kpt #:    24
     total cpu time spent up to now is       14.9 secs

     Computing kpt #:    25
     total cpu time spent up to now is       15.5 secs

     Computing kpt #:    26
     total cpu time spent up to now is       16.1 secs

     Computing kpt #:    27
     total cpu time spent up to now is       16.7 secs

     Computing kpt #:    28
     total cpu time spent up to now is       17.3 secs

     Computing kpt #:    29
     total cpu time spent up to now is       17.9 secs

     Computing kpt #:    30
     total cpu time spent up to now is       18.5 secs

     Computing kpt #:    31
     total cpu time spent up to now is       19.1 secs

     Computing kpt #:    32
     total cpu time spent up to now is       19.7 secs

     Computing kpt #:    33
     total cpu time spent up to now is       20.3 secs

     Computing kpt #:    34
     total cpu time spent up to now is       20.9 secs

     Computing kpt #:    35
     total cpu time spent up to now is       21.4 secs

     Computing kpt #:    36
     total cpu time spent up to now is       22.0 secs

     Computing kpt #:    37
     total cpu time spent up to now is       22.6 secs

     Computing kpt #:    38
     total cpu time spent up to now is       23.2 secs

     Computing kpt #:    39
     total cpu time spent up to now is       23.8 secs

     Computing kpt #:    40
     total cpu time spent up to now is       24.4 secs

     Computing kpt #:    41
     total cpu time spent up to now is       25.0 secs

     Computing kpt #:    42
     total cpu time spent up to now is       25.6 secs

     Computing kpt #:    43
     total cpu time spent up to now is       26.1 secs

     Computing kpt #:    44
     total cpu time spent up to now is       26.7 secs

     Computing kpt #:    45
     total cpu time spent up to now is       27.3 secs

     Computing kpt #:    46
     total cpu time spent up to now is       27.9 secs

     Computing kpt #:    47
     total cpu time spent up to now is       28.5 secs

     Computing kpt #:    48
     total cpu time spent up to now is       29.1 secs

     Computing kpt #:    49
     total cpu time spent up to now is       29.7 secs

     Computing kpt #:    50
     total cpu time spent up to now is       30.3 secs

     Computing kpt #:    51
     total cpu time spent up to now is       30.9 secs

     Computing kpt #:    52
     total cpu time spent up to now is       31.5 secs

     Computing kpt #:    53
     total cpu time spent up to now is       32.1 secs

     Computing kpt #:    54
     total cpu time spent up to now is       32.6 secs

     Computing kpt #:    55
     total cpu time spent up to now is       33.2 secs

     Computing kpt #:    56
     total cpu time spent up to now is       33.8 secs

     Computing kpt #:    57
     total cpu time spent up to now is       34.4 secs

     Computing kpt #:    58
     total cpu time spent up to now is       35.0 secs

     Computing kpt #:    59
     total cpu time spent up to now is       35.6 secs

     Computing kpt #:    60
     total cpu time spent up to now is       36.2 secs

     Computing kpt #:    61
     total cpu time spent up to now is       36.8 secs

     Computing kpt #:    62
     total cpu time spent up to now is       37.4 secs

     Computing kpt #:    63
     total cpu time spent up to now is       37.9 secs

     Computing kpt #:    64
     total cpu time spent up to now is       38.5 secs

     Computing kpt #:    65
     total cpu time spent up to now is       39.1 secs

     Computing kpt #:    66
     total cpu time spent up to now is       39.7 secs

     Computing kpt #:    67
     total cpu time spent up to now is       40.3 secs

     Computing kpt #:    68
     total cpu time spent up to now is       40.9 secs

     Computing kpt #:    69
     total cpu time spent up to now is       41.5 secs

     Computing kpt #:    70
     total cpu time spent up to now is       42.1 secs

     Computing kpt #:    71
     total cpu time spent up to now is       42.7 secs

     Computing kpt #:    72
     total cpu time spent up to now is       43.3 secs

     Computing kpt #:    73
     total cpu time spent up to now is       43.9 secs

     Computing kpt #:    74
     total cpu time spent up to now is       44.5 secs

     Computing kpt #:    75
     total cpu time spent up to now is       45.2 secs

     Computing kpt #:    76
     total cpu time spent up to now is       45.9 secs

     Computing kpt #:    77
     total cpu time spent up to now is       46.5 secs

     Computing kpt #:    78
     total cpu time spent up to now is       47.1 secs

     Computing kpt #:    79
     total cpu time spent up to now is       47.7 secs

     Computing kpt #:    80
     total cpu time spent up to now is       48.3 secs

     Computing kpt #:    81
     total cpu time spent up to now is       48.8 secs

     Computing kpt #:    82
     total cpu time spent up to now is       49.4 secs

     Computing kpt #:    83
     total cpu time spent up to now is       50.0 secs

     Computing kpt #:    84
     total cpu time spent up to now is       50.5 secs

     Computing kpt #:    85
     total cpu time spent up to now is       51.1 secs

     Computing kpt #:    86
     total cpu time spent up to now is       51.7 secs

     Computing kpt #:    87
     total cpu time spent up to now is       52.2 secs

     Computing kpt #:    88
     total cpu time spent up to now is       52.8 secs

     Computing kpt #:    89
     total cpu time spent up to now is       53.3 secs

     Computing kpt #:    90
     total cpu time spent up to now is       53.9 secs

     Computing kpt #:    91
     total cpu time spent up to now is       54.5 secs

     Computing kpt #:    92
     total cpu time spent up to now is       55.1 secs

     Computing kpt #:    93
     total cpu time spent up to now is       55.6 secs

     Computing kpt #:    94
     total cpu time spent up to now is       56.2 secs

     Computing kpt #:    95
     total cpu time spent up to now is       56.8 secs

     Computing kpt #:    96
     total cpu time spent up to now is       57.4 secs

     Computing kpt #:    97
     total cpu time spent up to now is       58.1 secs

     Computing kpt #:    98
     total cpu time spent up to now is       58.8 secs

     Computing kpt #:    99
     total cpu time spent up to now is       59.6 secs

     Computing kpt #:   100
     total cpu time spent up to now is       60.5 secs

     Computing kpt #:   101
     total cpu time spent up to now is       61.3 secs

     ethr =  9.09E-11,  avg # of iterations = 33.1

     total cpu time spent up to now is       61.3 secs

     End of band structure calculation

          k = 0.0000 0.0000 0.0000 ( 11303 PWs)   bands (ev):

   -10.8654  -6.8169  -6.8168  -6.4597  -5.2399  -5.2399  -1.1799  -1.1799
     1.1475   2.1145

          k = 0.0000 0.0000 0.0212 ( 11295 PWs)   bands (ev):

   -10.8641  -6.8167  -6.8166  -6.4594  -5.2413  -5.2413  -1.1786  -1.1786
     1.1481   2.1151

          k = 0.0000 0.0000 0.0423 ( 11319 PWs)   bands (ev):

   -10.8602  -6.8163  -6.8162  -6.4582  -5.2454  -5.2454  -1.1746  -1.1746
     1.1499   2.1169

          k = 0.0000 0.0000 0.0635 ( 11319 PWs)   bands (ev):

   -10.8537  -6.8155  -6.8154  -6.4564  -5.2523  -5.2523  -1.1681  -1.1681
     1.1528   2.1198

          k = 0.0000 0.0000 0.0847 ( 11319 PWs)   bands (ev):

   -10.8445  -6.8144  -6.8143  -6.4538  -5.2618  -5.2618  -1.1590  -1.1590
     1.1570   2.1240

          k = 0.0000 0.0000 0.1058 ( 11319 PWs)   bands (ev):

   -10.8328  -6.8130  -6.8129  -6.4504  -5.2741  -5.2741  -1.1473  -1.1473
     1.1623   2.1293

          k = 0.0000 0.0000 0.1270 ( 11311 PWs)   bands (ev):

   -10.8184  -6.8113  -6.8112  -6.4463  -5.2889  -5.2889  -1.1332  -1.1332
     1.1687   2.1358

          k = 0.0000 0.0000 0.1482 ( 11315 PWs)   bands (ev):

   -10.8015  -6.8092  -6.8091  -6.4414  -5.3062  -5.3062  -1.1166  -1.1166
     1.1764   2.1434

          k = 0.0000 0.0000 0.1693 ( 11343 PWs)   bands (ev):

   -10.7820  -6.8069  -6.8068  -6.4358  -5.3261  -5.3261  -1.0976  -1.0976
     1.1852   2.1523

          k = 0.0000 0.0000 0.1905 ( 11351 PWs)   bands (ev):

   -10.7598  -6.8043  -6.8042  -6.4295  -5.3483  -5.3483  -1.0763  -1.0763
     1.1952   2.1623

          k = 0.0000 0.0000 0.2117 ( 11323 PWs)   bands (ev):

   -10.7351  -6.8013  -6.8012  -6.4224  -5.3728  -5.3728  -1.0528  -1.0528
     1.2064   2.1735

          k = 0.0000 0.0000 0.2328 ( 11319 PWs)   bands (ev):

   -10.7079  -6.7981  -6.7980  -6.4145  -5.3995  -5.3995  -1.0271  -1.0271
     1.2188   2.1859

          k = 0.0000 0.0000 0.2540 ( 11319 PWs)   bands (ev):

   -10.6780  -6.7946  -6.7944  -6.4060  -5.4284  -5.4284  -0.9992  -0.9992
     1.2323   2.1994

          k = 0.0000 0.0000 0.2752 ( 11327 PWs)   bands (ev):

   -10.6456  -6.7907  -6.7906  -6.3967  -5.4593  -5.4593  -0.9694  -0.9694
     1.2471   2.2142

          k = 0.0000 0.0000 0.2963 ( 11315 PWs)   bands (ev):

   -10.6107  -6.7866  -6.7865  -6.3866  -5.4920  -5.4920  -0.9376  -0.9376
     1.2630   2.2301

          k = 0.0000 0.0000 0.3175 ( 11323 PWs)   bands (ev):

   -10.5733  -6.7822  -6.7821  -6.3758  -5.5266  -5.5266  -0.9040  -0.9040
     1.2800   2.2472

          k = 0.0000 0.0000 0.3387 ( 11311 PWs)   bands (ev):

   -10.5333  -6.7775  -6.7774  -6.3643  -5.5629  -5.5629  -0.8685  -0.8685
     1.2983   2.2655

          k = 0.0000 0.0000 0.3598 ( 11311 PWs)   bands (ev):

   -10.4908  -6.7725  -6.7724  -6.3520  -5.6008  -5.6008  -0.8314  -0.8314
     1.3177   2.2850

          k = 0.0000 0.0000 0.3810 ( 11331 PWs)   bands (ev):

   -10.4459  -6.7673  -6.7671  -6.3390  -5.6402  -5.6402  -0.7926  -0.7926
     1.3383   2.3056

          k = 0.0000 0.0000 0.4022 ( 11339 PWs)   bands (ev):

   -10.3984  -6.7617  -6.7616  -6.3252  -5.6810  -5.6810  -0.7523  -0.7523
     1.3601   2.3274

          k = 0.0000 0.0000 0.4233 ( 11323 PWs)   bands (ev):

   -10.3485  -6.7559  -6.7558  -6.3108  -5.7231  -5.7231  -0.7104  -0.7104
     1.3831   2.3504

          k = 0.0000 0.0000 0.4445 ( 11323 PWs)   bands (ev):

   -10.2962  -6.7499  -6.7497  -6.2955  -5.7664  -5.7664  -0.6672  -0.6672
     1.4073   2.3746

          k = 0.0000 0.0000 0.4657 ( 11323 PWs)   bands (ev):

   -10.2415  -6.7436  -6.7434  -6.2796  -5.8108  -5.8108  -0.6225  -0.6225
     1.4326   2.4000

          k = 0.0000 0.0000 0.4868 ( 11315 PWs)   bands (ev):

   -10.1843  -6.7370  -6.7369  -6.2629  -5.8562  -5.8562  -0.5765  -0.5765
     1.4591   2.4265

          k = 0.0000 0.0000 0.5080 ( 11307 PWs)   bands (ev):

   -10.1248  -6.7302  -6.7300  -6.2455  -5.9025  -5.9025  -0.5293  -0.5293
     1.4868   2.4542

          k = 0.0000 0.0000 0.5292 ( 11299 PWs)   bands (ev):

   -10.0630  -6.7231  -6.7230  -6.2273  -5.9497  -5.9497  -0.4809  -0.4809
     1.5156   2.4831

          k = 0.0000 0.0000 0.5503 ( 11319 PWs)   bands (ev):

    -9.9988  -6.7158  -6.7157  -6.2085  -5.9977  -5.9977  -0.4313  -0.4313
     1.5457   2.5132

          k = 0.0000 0.0000 0.5715 ( 11303 PWs)   bands (ev):

    -9.9324  -6.7083  -6.7082  -6.1888  -6.0463  -6.0463  -0.3806  -0.3806
     1.5769   2.5444

          k = 0.0000 0.0000 0.5927 ( 11291 PWs)   bands (ev):

    -9.8636  -6.7006  -6.7004  -6.1684  -6.0956  -6.0956  -0.3288  -0.3288
     1.6093   2.5769

          k = 0.0000 0.0000 0.6138 ( 11291 PWs)   bands (ev):

    -9.7927  -6.6926  -6.6925  -6.1473  -6.1454  -6.1454  -0.2759  -0.2759
     1.6429   2.6105

          k = 0.0000 0.0000 0.6350 ( 11315 PWs)   bands (ev):

    -9.7195  -6.6845  -6.6843  -6.1956  -6.1956  -6.1254  -0.2220  -0.2220
     1.6776   2.6453

          k = 0.0000 0.0000 0.6562 ( 11323 PWs)   bands (ev):

    -9.6442  -6.6761  -6.6759  -6.2463  -6.2463  -6.1028  -0.1672  -0.1672
     1.7136   2.6812

          k = 0.0000 0.0000 0.6773 ( 11319 PWs)   bands (ev):

    -9.5667  -6.6675  -6.6674  -6.2972  -6.2972  -6.0794  -0.1114  -0.1114
     1.7507   2.7184

          k = 0.0000 0.0000 0.6985 ( 11307 PWs)   bands (ev):

    -9.4872  -6.6588  -6.6586  -6.3485  -6.3485  -6.0552  -0.0547  -0.0547
     1.7890   2.7567

          k = 0.0000 0.0000 0.7197 ( 11307 PWs)   bands (ev):

    -9.4056  -6.6499  -6.6497  -6.3999  -6.3999  -6.0302   0.0030   0.0030
     1.8285   2.7962

          k = 0.0000 0.0000 0.7408 ( 11315 PWs)   bands (ev):

    -9.3221  -6.6408  -6.6406  -6.4515  -6.4515  -6.0044   0.0615   0.0615
     1.8691   2.8369

          k = 0.0000 0.0000 0.7620 ( 11315 PWs)   bands (ev):

    -9.2365  -6.6315  -6.6314  -6.5032  -6.5032  -5.9778   0.1209   0.1209
     1.9110   2.8788

          k = 0.0000 0.0000 0.7832 ( 11271 PWs)   bands (ev):

    -9.1491  -6.6221  -6.6219  -6.5548  -6.5548  -5.9503   0.1811   0.1811
     1.9540   2.9219

          k = 0.0000 0.0000 0.8043 ( 11279 PWs)   bands (ev):

    -9.0599  -6.6125  -6.6124  -6.6066  -6.6066  -5.9220   0.2422   0.2422
     1.9982   2.9661

          k = 0.0000 0.0000 0.8255 ( 11275 PWs)   bands (ev):

    -8.9690  -6.6582  -6.6582  -6.6029  -6.6027  -5.8928   0.3041   0.3041
     2.0436   3.0115

          k = 0.0000 0.0000 0.8467 ( 11259 PWs)   bands (ev):

    -8.8763  -6.7097  -6.7097  -6.5930  -6.5929  -5.8626   0.3669   0.3669
     2.0902   3.0581

          k = 0.0000 0.0000 0.8678 ( 11259 PWs)   bands (ev):

    -8.7821  -6.7611  -6.7611  -6.5831  -6.5829  -5.8316   0.4304   0.4304
     2.1380   3.1058

          k = 0.0000 0.0000 0.8890 ( 11267 PWs)   bands (ev):

    -8.6863  -6.8123  -6.8123  -6.5730  -6.5729  -5.7995   0.4948   0.4948
     2.1869   3.1548

          k = 0.0000 0.0000 0.9102 ( 11259 PWs)   bands (ev):

    -8.5890  -6.8632  -6.8632  -6.5629  -6.5627  -5.7663   0.5599   0.5599
     2.2370   3.2049

          k = 0.0000 0.0000 0.9314 ( 11283 PWs)   bands (ev):

    -8.4905  -6.9139  -6.9139  -6.5527  -6.5525  -5.7321   0.6258   0.6258
     2.2884   3.2562

          k = 0.0000 0.0000 0.9525 ( 11291 PWs)   bands (ev):

    -8.3907  -6.9642  -6.9642  -6.5424  -6.5422  -5.6967   0.6925   0.6925
     2.3409   3.3087

          k = 0.0000 0.0000 0.9737 ( 11287 PWs)   bands (ev):

    -8.2898  -7.0142  -7.0142  -6.5320  -6.5318  -5.6600   0.7600   0.7600
     2.3946   3.3624

          k = 0.0000 0.0000 0.9949 ( 11283 PWs)   bands (ev):

    -8.1880  -7.0638  -7.0638  -6.5215  -6.5213  -5.6220   0.8282   0.8282
     2.4495   3.4172

          k = 0.0000 0.0000 1.0160 ( 11295 PWs)   bands (ev):

    -8.0853  -7.1130  -7.1130  -6.5110  -6.5108  -5.5827   0.8972   0.8972
     2.5055   3.4732

          k = 0.0000 0.0000 1.0372 ( 11303 PWs)   bands (ev):

    -7.9820  -7.1617  -7.1617  -6.5005  -6.5003  -5.5417   0.9670   0.9670
     2.5628   3.5304

          k = 0.0000 0.0000 1.0584 ( 11287 PWs)   bands (ev):

    -7.8782  -7.2099  -7.2099  -6.4899  -6.4897  -5.4991   1.0375   1.0375
     2.6213   3.5888

          k = 0.0000 0.0000 1.0795 ( 11287 PWs)   bands (ev):

    -7.7741  -7.2576  -7.2576  -6.4793  -6.4791  -5.4547   1.1088   1.1088
     2.6810   3.6484

          k = 0.0000 0.0000 1.1007 ( 11287 PWs)   bands (ev):

    -7.6699  -7.3047  -7.3047  -6.4687  -6.4685  -5.4084   1.1808   1.1808
     2.7418   3.7091

          k = 0.0000 0.0000 1.1219 ( 11283 PWs)   bands (ev):

    -7.5659  -7.3513  -7.3513  -6.4581  -6.4579  -5.3599   1.2536   1.2536
     2.8039   3.7710

          k = 0.0000 0.0000 1.1430 ( 11287 PWs)   bands (ev):

    -7.4623  -7.3972  -7.3972  -6.4475  -6.4473  -5.3091   1.3272   1.3272
     2.8671   3.8341

          k = 0.0000 0.0000 1.1642 ( 11291 PWs)   bands (ev):

    -7.4425  -7.4425  -7.3594  -6.4369  -6.4368  -5.2557   1.4014   1.4014
     2.9316   3.8984

          k = 0.0000 0.0000 1.1854 ( 11283 PWs)   bands (ev):

    -7.4872  -7.4872  -7.2575  -6.4264  -6.4262  -5.1996   1.4765   1.4765
     2.9972   3.9638

          k = 0.0000 0.0000 1.2065 ( 11275 PWs)   bands (ev):

    -7.5311  -7.5311  -7.1569  -6.4159  -6.4157  -5.1405   1.5522   1.5522
     3.0641   4.0305

          k = 0.0000 0.0000 1.2277 ( 11267 PWs)   bands (ev):

    -7.5744  -7.5744  -7.0579  -6.4055  -6.4053  -5.0781   1.6287   1.6287
     3.1322   4.0983

          k = 0.0000 0.0000 1.2489 ( 11275 PWs)   bands (ev):

    -7.6169  -7.6169  -6.9608  -6.3951  -6.3949  -5.0121   1.7059   1.7059
     3.2015   4.1673

          k = 0.0000 0.0000 1.2700 ( 11263 PWs)   bands (ev):

    -7.6586  -7.6586  -6.8660  -6.3848  -6.3846  -4.9423   1.7839   1.7839
     3.2720   4.2375

          k = 0.0000 0.0000 1.2912 ( 11263 PWs)   bands (ev):

    -7.6996  -7.6996  -6.7738  -6.3745  -6.3744  -4.8685   1.8625   1.8625
     3.3437   4.3088

          k = 0.0000 0.0000 1.3124 ( 11259 PWs)   bands (ev):

    -7.7398  -7.7398  -6.6845  -6.3644  -6.3642  -4.7905   1.9418   1.9418
     3.4166   4.3813

          k = 0.0000 0.0000 1.3335 ( 11271 PWs)   bands (ev):

    -7.7792  -7.7792  -6.5983  -6.3544  -6.3542  -4.7079   2.0219   2.0219
     3.4907   4.4550

          k = 0.0000 0.0000 1.3547 ( 11270 PWs)   bands (ev):

    -7.8177  -7.8177  -6.5154  -6.3445  -6.3443  -4.6208   2.1026   2.1026
     3.5661   4.5299

          k = 0.0000 0.0000 1.3759 ( 11254 PWs)   bands (ev):

    -7.8554  -7.8554  -6.4362  -6.3347  -6.3345  -4.5289   2.1840   2.1840
     3.6427   4.6060

          k = 0.0000 0.0000 1.3970 ( 11270 PWs)   bands (ev):

    -7.8922  -7.8922  -6.3606  -6.3251  -6.3249  -4.4323   2.2660   2.2660
     3.7205   4.6832

          k = 0.0000 0.0000 1.4182 ( 11254 PWs)   bands (ev):

    -7.9281  -7.9281  -6.3156  -6.3154  -6.2887  -4.3310   2.3487   2.3487
     3.7995   4.7616

          k = 0.0000 0.0000 1.4394 ( 11270 PWs)   bands (ev):

    -7.9631  -7.9631  -6.3063  -6.3061  -6.2205  -4.2250   2.4320   2.4320
     3.8798   4.8412

          k = 0.0000 0.0000 1.4605 ( 11258 PWs)   bands (ev):

    -7.9972  -7.9972  -6.2971  -6.2969  -6.1561  -4.1145   2.5159   2.5159
     3.9613   4.9220

          k = 0.0000 0.0000 1.4817 ( 11250 PWs)   bands (ev):

    -8.0303  -8.0303  -6.2882  -6.2880  -6.0952  -3.9996   2.6003   2.6003
     4.0440   5.0039

          k = 0.0000 0.0000 1.5029 ( 11242 PWs)   bands (ev):

    -8.0625  -8.0625  -6.2794  -6.2792  -6.0379  -3.8806   2.6853   2.6853
     4.1279   5.0871

          k = 0.0000 0.0000 1.5240 ( 11250 PWs)   bands (ev):

    -8.0937  -8.0937  -6.2708  -6.2706  -5.9839  -3.7577   2.7709   2.7709
     4.2131   5.1714

          k = 0.0000 0.0000 1.5452 ( 11254 PWs)   bands (ev):

    -8.1239  -8.1239  -6.2624  -6.2622  -5.9331  -3.6312   2.8568   2.8568
     4.2995   5.2568

          k = 0.0000 0.0000 1.5664 ( 11262 PWs)   bands (ev):

    -8.1532  -8.1532  -6.2542  -6.2540  -5.8854  -3.5013   2.9432   2.9432
     4.3870   5.3435

          k = 0.0000 0.0000 1.5875 ( 11254 PWs)   bands (ev):

    -8.1814  -8.1814  -6.2463  -6.2461  -5.8404  -3.3682   3.0300   3.0300
     4.4757   5.4313

          k = 0.0000 0.0000 1.6087 ( 11254 PWs)   bands (ev):

    -8.2087  -8.2087  -6.2386  -6.2384  -5.7983  -3.2324   3.1171   3.1171
     4.5655   5.3635

          k = 0.0000 0.0000 1.6299 ( 11254 PWs)   bands (ev):

    -8.2349  -8.2349  -6.2311  -6.2309  -5.7586  -3.0940   3.2045   3.2045
     4.6560   5.1911

          k = 0.0000 0.0000 1.6510 ( 11266 PWs)   bands (ev):

    -8.2600  -8.2600  -6.2239  -6.2237  -5.7214  -2.9534   3.2920   3.2920
     4.7455   5.0214

          k = 0.0000 0.0000 1.6722 ( 11274 PWs)   bands (ev):

    -8.2841  -8.2841  -6.2169  -6.2167  -5.6865  -2.8107   3.3797   3.3797
     4.8018   4.8868

          k = 0.0000 0.0000 1.6934 ( 11274 PWs)   bands (ev):

    -8.3072  -8.3072  -6.2102  -6.2100  -5.6537  -2.6663   3.4673   3.4673
     4.6640   4.9482

          k = 0.0000 0.0000 1.7145 ( 11286 PWs)   bands (ev):

    -8.3292  -8.3292  -6.2038  -6.2036  -5.6230  -2.5205   3.5548   3.5548
     4.4963   5.0417

          k = 0.0000 0.0000 1.7357 ( 11294 PWs)   bands (ev):

    -8.3501  -8.3501  -6.1977  -6.1975  -5.5943  -2.3736   3.6420   3.6420
     4.3276   5.1386

          k = 0.0000 0.0000 1.7569 ( 11286 PWs)   bands (ev):

    -8.3699  -8.3699  -6.1919  -6.1917  -5.5674  -2.2258   3.7288   3.7288
     4.1593   5.2373

          k = 0.0000 0.0000 1.7780 ( 11294 PWs)   bands (ev):

    -8.3886  -8.3886  -6.1863  -6.1861  -5.5424  -2.0774   3.8150   3.8150
     3.9922   5.3375

          k = 0.0000 0.0000 1.7992 ( 11302 PWs)   bands (ev):

    -8.4063  -8.4063  -6.1811  -6.1809  -5.5191  -1.9289   3.8265   3.9004
     3.9004   5.4390

          k = 0.0000 0.0000 1.8204 ( 11294 PWs)   bands (ev):

    -8.4228  -8.4228  -6.1762  -6.1759  -5.4975  -1.7805   3.6626   3.9846
     3.9846   5.5420

          k = 0.0000 0.0000 1.8415 ( 11294 PWs)   bands (ev):

    -8.4382  -8.4382  -6.1715  -6.1713  -5.4775  -1.6329   3.5007   4.0675
     4.0675   5.6462

          k = 0.0000 0.0000 1.8627 ( 11290 PWs)   bands (ev):

    -8.4525  -8.4525  -6.1672  -6.1670  -5.4591  -1.4863   3.3414   4.1486
     4.1486   5.7518

          k = 0.0000 0.0000 1.8839 ( 11282 PWs)   bands (ev):

    -8.4657  -8.4657  -6.1633  -6.1631  -5.4424  -1.3416   3.1852   4.2275
     4.2275   5.8586

          k = 0.0000 0.0000 1.9050 ( 11282 PWs)   bands (ev):

    -8.4777  -8.4777  -6.1596  -6.1594  -5.4271  -1.1994   3.0328   4.3038
     4.3038   5.9667

          k = 0.0000 0.0000 1.9262 ( 11290 PWs)   bands (ev):

    -8.4886  -8.4886  -6.1563  -6.1561  -5.4134  -1.0607   2.8850   4.3767
     4.3767   6.0760

          k = 0.0000 0.0000 1.9474 ( 11306 PWs)   bands (ev):

    -8.4984  -8.4984  -6.1533  -6.1531  -5.4012  -0.9265   2.7429   4.4458
     4.4458   6.1866

          k = 0.0000 0.0000 1.9685 ( 11298 PWs)   bands (ev):

    -8.5070  -8.5070  -6.1507  -6.1505  -5.3904  -0.7984   2.6079   4.5101
     4.5101   6.2983

          k = 0.0000 0.0000 1.9897 ( 11282 PWs)   bands (ev):

    -8.5145  -8.5145  -6.1484  -6.1482  -5.3811  -0.6782   2.4818   4.5688
     4.5688   6.4111

          k = 0.0000 0.0000 2.0109 ( 11270 PWs)   bands (ev):

    -8.5208  -8.5208  -6.1465  -6.1463  -5.3732  -0.5682   2.3669   4.6209
     4.6209   6.5249

          k = 0.0000 0.0000 2.0320 ( 11254 PWs)   bands (ev):

    -8.5260  -8.5260  -6.1449  -6.1447  -5.3668  -0.4711   2.2658   4.6655
     4.6655   6.6394

          k = 0.0000 0.0000 2.0532 ( 11242 PWs)   bands (ev):

    -8.5300  -8.5300  -6.1437  -6.1434  -5.3618  -0.3902   2.1818   4.7015
     4.7015   6.7540

          k = 0.0000 0.0000 2.0744 ( 11234 PWs)   bands (ev):

    -8.5329  -8.5329  -6.1428  -6.1426  -5.3583  -0.3290   2.1184   4.7280
     4.7280   6.8672

          k = 0.0000 0.0000 2.0955 ( 11230 PWs)   bands (ev):

    -8.5347  -8.5347  -6.1422  -6.1420  -5.3562  -0.2906   2.0787   4.7442
     4.7442   6.9729

          k = 0.0000 0.0000-2.1167 ( 11226 PWs)   bands (ev):

    -8.5352  -8.5352  -6.1421  -6.1419  -5.3554  -0.2775   2.0652   4.7497
     4.7497   6.9987

     Writing output data file gold.save
 
     init_run     :      0.61s CPU      0.64s WALL (       1 calls)
     electrons    :     60.05s CPU     60.46s WALL (       1 calls)

     Called by init_run:
     wfcinit      :      0.00s CPU      0.00s WALL (       1 calls)
     potinit      :      0.07s CPU      0.07s WALL (       1 calls)

     Called by electrons:
     c_bands      :     60.05s CPU     60.46s WALL (       1 calls)
     v_of_rho     :      0.05s CPU      0.05s WALL (       1 calls)
     v_h          :      0.00s CPU      0.00s WALL (       1 calls)
     v_xc         :      0.05s CPU      0.05s WALL (       1 calls)

     Called by c_bands:
     init_us_2    :      0.01s CPU      0.07s WALL (     101 calls)
     cegterg      :     56.58s CPU     56.97s WALL (     210 calls)

     Called by sum_band:

     Called by *egterg:
     h_psi        :     50.31s CPU     51.02s WALL (    3651 calls)
     g_psi        :      0.71s CPU      0.64s WALL (    3340 calls)
     cdiaghg      :      1.58s CPU      1.74s WALL (    3441 calls)
     cegterg:over :      2.72s CPU      2.73s WALL (    3340 calls)
     cegterg:upda :      2.05s CPU      2.10s WALL (    3340 calls)
     cegterg:last :      1.11s CPU      0.96s WALL (     515 calls)

     Called by h_psi:
     h_psi:vloc   :     49.02s CPU     49.59s WALL (    3651 calls)
     h_psi:vnl    :      1.09s CPU      1.21s WALL (    3651 calls)
     add_vuspsi   :      0.40s CPU      0.45s WALL (    3651 calls)

     General routines
     calbec       :      0.68s CPU      0.75s WALL (    3651 calls)
     fft          :      0.02s CPU      0.03s WALL (      11 calls)
     fftw         :     44.38s CPU     44.76s WALL (   32896 calls)
 
     Parallel routines
     fft_scatter  :     11.95s CPU     11.30s WALL (   32907 calls)
 
     PWSCF        :  1m 2.50s CPU     1m 3.84s WALL

 
   This run was terminated on:  11: 2:13   1Aug2013            

=------------------------------------------------------------------------------=
   JOB DONE.
=------------------------------------------------------------------------------=
