
     Program PWSCF v.5.0.2 (svn rev. 10303M) starts on  1Aug2013 at 11:19:49 

     This program is part of the open-source Quantum ESPRESSO suite
     for quantum simulation of materials; please cite
         "P. Giannozzi et al., J. Phys.:Condens. Matter 21 395502 (2009);
          URL http://www.quantum-espresso.org", 
     in publications or presentations arising from this work. More details at
     http://www.quantum-espresso.org/quote

     Parallel version (MPI & OpenMP), running on       6 processor cores
     Number of MPI processes:                 6
     Threads/MPI process:                     1
     R & G space division:  proc/nbgrp/npool/nimage =       6
     Reading input from /home/ferretti/want/tests/test06/nscf_CoUS.in

     Current dimensions of program PWSCF are:
     Max number of different atomic species (ntypx) = 10
     Max number of k-points (npk) =  40000
     Max angular momentum in pseudopotentials (lmaxx) =  3

     Atomic positions and unit cell read from directory:
     ./SCRATCH/cobalt_US.save/
 
               file Co.pbe-nd-rrkjus.UPF: wavefunction(s)  4S 3D renormalized

     Subspace diagonalization in iterative solution of the eigenvalue problem:
     a serial algorithm will be used

 
     Parallelization info
     --------------------
     sticks:   dense  smooth     PW     G-vecs:    dense   smooth      PW
     Min        2387     953    376                33871     8573    2136
     Max        2389     954    377                33872     8582    2137
     Sum       14329    5721   2261               203229    51461   12821
 


     bravais-lattice index     =            8
     lattice parameter (alat)  =      30.0000  a.u.
     unit-cell volume          =    4251.8880 (a.u.)^3
     number of atoms/cell      =            1
     number of atomic types    =            1
     number of electrons       =         9.00
     number of Kohn-Sham states=           10
     kinetic-energy cutoff     =      20.0000  Ry
     charge density cutoff     =     200.0000  Ry
     Exchange-correlation      =  SLA  PW   PBE  PBE ( 1 4 3 4 0)
     EXX-fraction              =        0.00

     celldm(1)=  30.000000  celldm(2)=   1.000000  celldm(3)=   0.157477
     celldm(4)=   0.000000  celldm(5)=   0.000000  celldm(6)=   0.000000

     crystal axes: (cart. coord. in units of alat)
               a(1) = (   1.000000   0.000000   0.000000 )  
               a(2) = (   0.000000   1.000000   0.000000 )  
               a(3) = (   0.000000   0.000000   0.157477 )  

     reciprocal axes: (cart. coord. in units 2 pi/alat)
               b(1) = (  1.000000  0.000000  0.000000 )  
               b(2) = (  0.000000  1.000000  0.000000 )  
               b(3) = (  0.000000  0.000000  6.350120 )  


     PseudoPot. # 1 for Co read from file:
     ../pseudo/Co.pbe-nd-rrkjus.UPF
     MD5 check sum: 3e47a84addf5e975e0edeaeee2a73f59
     Pseudo is Ultrasoft + core correction, Zval =  9.0
     Generated by new atomic code, or converted to UPF format
     Using radial grid of  961 points,  6 beta functions with: 
                l(1) =   0
                l(2) =   0
                l(3) =   1
                l(4) =   1
                l(5) =   2
                l(6) =   2
     Q(r) pseudized with 0 coefficients 


     atomic species   valence    mass     pseudopotential
        Co             9.00    58.93320     Co( 1.00)

      8 Sym. Ops. (no inversion) found
          (note:  8 additional sym.ops. were found but ignored
           their fractional translations are incommensurate with FFT grid)


   Cartesian axes

     site n.     atom                  positions (alat units)
         1           Co  tau(   1) = (   0.0000000   0.0000000   0.0314954  )

     number of k points=     8  gaussian smearing, width (Ry)=  0.0100
                       cart. coord. in units 2pi/alat
        k(    1) = (   0.0000000   0.0000000   0.0000000), wk =   0.2500000
        k(    2) = (   0.0000000   0.0000000   0.7937650), wk =   0.2500000
        k(    3) = (   0.0000000   0.0000000   1.5875301), wk =   0.2500000
        k(    4) = (   0.0000000   0.0000000   2.3812951), wk =   0.2500000
        k(    5) = (   0.0000000   0.0000000   3.1750601), wk =   0.2500000
        k(    6) = (   0.0000000   0.0000000   3.9688252), wk =   0.2500000
        k(    7) = (   0.0000000   0.0000000   4.7625902), wk =   0.2500000
        k(    8) = (   0.0000000   0.0000000   5.5563552), wk =   0.2500000

     Dense  grid:   203229 G-vectors     FFT dimensions: ( 135, 135,  24)

     Smooth grid:    51461 G-vectors     FFT dimensions: (  90,  90,  15)

     Largest allocated arrays     est. size (Mb)     dimensions
        Kohn-Sham Wavefunctions         0.17 Mb     (    1087,   10)
        NL pseudopotentials             0.30 Mb     (    1087,   18)
        Each V/rho on FFT grid          1.11 Mb     (   72900)
        Each G-vector array             0.26 Mb     (   33872)
        G-vector shells                 0.07 Mb     (    8634)
     Largest temporary arrays     est. size (Mb)     dimensions
        Auxiliary wavefunctions         0.66 Mb     (    1087,   40)
        Each subspace H/S matrix        0.02 Mb     (      40,   40)
        Each <psi_i|beta_j> matrix      0.00 Mb     (      18,   10)

     Check: negative/imaginary core charge=   -0.000009    0.000000

     The potential is recalculated from file :
     ./SCRATCH/cobalt_US.save/charge-density.dat


     negative rho (up, down):  2.391E-02 0.000E+00
     Starting wfc are    6 randomized atomic wfcs

     Band Structure Calculation
     Davidson diagonalization with overlap

     ethr =  1.11E-10,  avg # of iterations = 67.1

     total cpu time spent up to now is        7.8 secs

     End of band structure calculation

          k = 0.0000 0.0000 0.0000 (  6495 PWs)   bands (ev):

    -7.4039  -5.2812  -4.9256  -4.9234  -4.3071  -4.3071  -1.9227  -1.9227
    -0.2458   0.2774

          k = 0.0000 0.0000 0.7938 (  6487 PWs)   bands (ev):

    -6.9335  -5.1124  -4.8745  -4.8745  -4.6283  -4.6283  -1.3876  -1.3876
     0.1259   0.6521

          k = 0.0000 0.0000 1.5875 (  6435 PWs)   bands (ev):

    -5.6507  -5.2005  -5.2005  -4.7502  -4.7473  -4.5962  -0.0633  -0.0633
     1.2418   1.7769

          k = 0.0000 0.0000 2.3813 (  6374 PWs)   bands (ev):

    -5.6461  -5.6461  -4.6250  -4.6250  -4.6170  -3.0191   1.8775   1.8775
     3.0683   3.6527

          k = 0.0000 0.0000 3.1751 (  6398 PWs)   bands (ev):

    -5.8096  -5.8096  -4.5763  -4.5734  -4.3907  -1.0394   1.3269   3.8881
     3.8881   5.2241

          k = 0.0000 0.0000 3.9688 (  6374 PWs)   bands (ev):

    -5.6461  -5.6461  -4.6250  -4.6250  -4.6170  -3.0191   1.8775   1.8775
     3.0683   3.6527

          k = 0.0000 0.0000 4.7626 (  6435 PWs)   bands (ev):

    -5.6507  -5.2005  -5.2005  -4.7502  -4.7473  -4.5962  -0.0633  -0.0633
     1.2418   1.7769

          k = 0.0000 0.0000 5.5564 (  6487 PWs)   bands (ev):

    -6.9335  -5.1124  -4.8745  -4.8745  -4.6283  -4.6283  -1.3876  -1.3876
     0.1259   0.6521

     the Fermi energy is    -4.5925 ev

     Writing output data file cobalt_US.save
 
     init_run     :      1.16s CPU      1.19s WALL (       1 calls)
     electrons    :      6.33s CPU      6.35s WALL (       1 calls)

     Called by init_run:
     wfcinit      :      0.00s CPU      0.00s WALL (       1 calls)
     potinit      :      0.14s CPU      0.15s WALL (       1 calls)

     Called by electrons:
     c_bands      :      6.33s CPU      6.35s WALL (       1 calls)
     v_of_rho     :      0.09s CPU      0.10s WALL (       1 calls)
     newd         :      0.25s CPU      0.25s WALL (       1 calls)

     Called by c_bands:
     init_us_2    :      0.00s CPU      0.00s WALL (       8 calls)
     cegterg      :      6.09s CPU      6.11s WALL (      31 calls)

     Called by *egterg:
     h_psi        :      5.27s CPU      5.25s WALL (     576 calls)
     s_psi        :      0.04s CPU      0.07s WALL (     576 calls)
     g_psi        :      0.02s CPU      0.05s WALL (     537 calls)
     cdiaghg      :      0.27s CPU      0.29s WALL (     545 calls)

     Called by h_psi:
     add_vuspsi   :      0.06s CPU      0.07s WALL (     576 calls)

     General routines
     calbec       :      0.11s CPU      0.13s WALL (     576 calls)
     fft          :      0.11s CPU      0.09s WALL (      13 calls)
     ffts         :      0.00s CPU      0.00s WALL (       1 calls)
     fftw         :      4.48s CPU      4.29s WALL (    4232 calls)
     interpolate  :      0.01s CPU      0.01s WALL (       1 calls)
     davcio       :      0.00s CPU      0.00s WALL (       8 calls)
 
     Parallel routines
     fft_scatter  :      1.28s CPU      1.21s WALL (    4246 calls)
 
     PWSCF        :     7.68s CPU         7.79s WALL

 
   This run was terminated on:  11:19:57   1Aug2013            

=------------------------------------------------------------------------------=
   JOB DONE.
=------------------------------------------------------------------------------=
