
     Program PWSCF v.5.0.2 (svn rev. 10303M) starts on  1Aug2013 at 10:58:18 

     This program is part of the open-source Quantum ESPRESSO suite
     for quantum simulation of materials; please cite
         "P. Giannozzi et al., J. Phys.:Condens. Matter 21 395502 (2009);
          URL http://www.quantum-espresso.org", 
     in publications or presentations arising from this work. More details at
     http://www.quantum-espresso.org/quote

     Parallel version (MPI & OpenMP), running on       6 processor cores
     Number of MPI processes:                 6
     Threads/MPI process:                     1
     R & G space division:  proc/nbgrp/npool/nimage =       6
     Reading input from /home/ferretti/want/tests/test06/nscf_Au.in

     Current dimensions of program PWSCF are:
     Max number of different atomic species (ntypx) = 10
     Max number of k-points (npk) =  40000
     Max angular momentum in pseudopotentials (lmaxx) =  3

     Atomic positions and unit cell read from directory:
     ./SCRATCH/gold.save/
 

     Subspace diagonalization in iterative solution of the eigenvalue problem:
     a serial algorithm will be used

 
     Parallelization info
     --------------------
     sticks:   dense  smooth     PW     G-vecs:    dense   smooth      PW
     Min        1061    1061    360                15056    15056    2966
     Max        1063    1063    361                15057    15057    2967
     Sum        6369    6369   2161                90341    90341   17797
 


     bravais-lattice index     =            8
     lattice parameter (alat)  =      20.0000  a.u.
     unit-cell volume          =    1889.7280 (a.u.)^3
     number of atoms/cell      =            1
     number of atomic types    =            1
     number of electrons       =        11.00
     number of Kohn-Sham states=           10
     kinetic-energy cutoff     =      50.0000  Ry
     charge density cutoff     =     200.0000  Ry
     Exchange-correlation      =  SLA  PW   GGX  GGC ( 1 4 2 2 0)
     EXX-fraction              =        0.00

     celldm(1)=  20.000000  celldm(2)=   1.000000  celldm(3)=   0.236216
     celldm(4)=   0.000000  celldm(5)=   0.000000  celldm(6)=   0.000000

     crystal axes: (cart. coord. in units of alat)
               a(1) = (   1.000000   0.000000   0.000000 )  
               a(2) = (   0.000000   1.000000   0.000000 )  
               a(3) = (   0.000000   0.000000   0.236216 )  

     reciprocal axes: (cart. coord. in units 2 pi/alat)
               b(1) = (  1.000000  0.000000  0.000000 )  
               b(2) = (  0.000000  1.000000  0.000000 )  
               b(3) = (  0.000000  0.000000  4.233413 )  


     PseudoPot. # 1 for Au read from file:
     ../pseudo/Au11pw91.mt.UPF
     MD5 check sum: e270e13d0e45fa10676aee720c7982d9
     Pseudo is Norm-conserving + core correction, Zval = 11.0
     Generated by new atomic code, or converted to UPF format
     Using radial grid of  331 points,  2 beta functions with: 
                l(1) =   1
                l(2) =   2

     atomic species   valence    mass     pseudopotential
        Au            11.00   196.96650     Au( 1.00)

      8 Sym. Ops. (no inversion) found
          (note:  8 additional sym.ops. were found but ignored
           their fractional translations are incommensurate with FFT grid)


   Cartesian axes

     site n.     atom                  positions (alat units)
         1           Au  tau(   1) = (   0.0000000   0.0000000   0.0472432  )

     number of k points=     8  gaussian smearing, width (Ry)=  0.0100
                       cart. coord. in units 2pi/alat
        k(    1) = (   0.0000000   0.0000000   0.0000000), wk =   0.2500000
        k(    2) = (   0.0000000   0.0000000   0.5291767), wk =   0.2500000
        k(    3) = (   0.0000000   0.0000000   1.0583534), wk =   0.2500000
        k(    4) = (   0.0000000   0.0000000   1.5875301), wk =   0.2500000
        k(    5) = (   0.0000000   0.0000000   2.1167067), wk =   0.2500000
        k(    6) = (   0.0000000   0.0000000   2.6458834), wk =   0.2500000
        k(    7) = (   0.0000000   0.0000000   3.1750601), wk =   0.2500000
        k(    8) = (   0.0000000   0.0000000   3.7042368), wk =   0.2500000

     Dense  grid:    90341 G-vectors     FFT dimensions: (  96,  96,  24)

     Largest allocated arrays     est. size (Mb)     dimensions
        Kohn-Sham Wavefunctions         0.29 Mb     (    1897,   10)
        NL pseudopotentials             0.23 Mb     (    1897,    8)
        Each V/rho on FFT grid          0.56 Mb     (   36864)
        Each G-vector array             0.11 Mb     (   15057)
        G-vector shells                 0.03 Mb     (    4105)
     Largest temporary arrays     est. size (Mb)     dimensions
        Auxiliary wavefunctions         1.16 Mb     (    1897,   40)
        Each subspace H/S matrix        0.02 Mb     (      40,   40)
        Each <psi_i|beta_j> matrix      0.00 Mb     (       8,   10)

     Check: negative/imaginary core charge=   -0.000021    0.000000

     The potential is recalculated from file :
     ./SCRATCH/gold.save/charge-density.dat

     Starting wfc are    9 randomized atomic wfcs

     Band Structure Calculation
     Davidson diagonalization with overlap

     ethr =  9.09E-11,  avg # of iterations = 41.5

     total cpu time spent up to now is        6.3 secs

     End of band structure calculation

          k = 0.0000 0.0000 0.0000 ( 11303 PWs)   bands (ev):

   -10.8654  -6.8169  -6.8168  -6.4597  -5.2399  -5.2399  -1.1799  -1.1799
     1.1475   2.1145

          k = 0.0000 0.0000 0.5292 ( 11299 PWs)   bands (ev):

   -10.0630  -6.7231  -6.7230  -6.2273  -5.9497  -5.9497  -0.4809  -0.4809
     1.5156   2.4831

          k = 0.0000 0.0000 1.0584 ( 11287 PWs)   bands (ev):

    -7.8782  -7.2099  -7.2099  -6.4899  -6.4897  -5.4991   1.0375   1.0375
     2.6213   3.5888

          k = 0.0000 0.0000 1.5875 ( 11254 PWs)   bands (ev):

    -8.1814  -8.1814  -6.2463  -6.2461  -5.8404  -3.3682   3.0300   3.0300
     4.4757   5.4313

          k = 0.0000 0.0000 2.1167 ( 11226 PWs)   bands (ev):

    -8.5352  -8.5352  -6.1421  -6.1419  -5.3554  -0.2775   2.0652   4.7497
     4.7497   6.9987

          k = 0.0000 0.0000 2.6459 ( 11254 PWs)   bands (ev):

    -8.1814  -8.1814  -6.2463  -6.2461  -5.8404  -3.3682   3.0300   3.0300
     4.4757   5.4313

          k = 0.0000 0.0000 3.1751 ( 11287 PWs)   bands (ev):

    -7.8782  -7.2099  -7.2099  -6.4899  -6.4897  -5.4991   1.0375   1.0375
     2.6213   3.5888

          k = 0.0000 0.0000 3.7042 ( 11299 PWs)   bands (ev):

   -10.0630  -6.7231  -6.7230  -6.2273  -5.9497  -5.9497  -0.4809  -0.4809
     1.5156   2.4831

     the Fermi energy is    -5.2281 ev

     Writing output data file gold.save
 
     init_run     :      0.62s CPU      0.62s WALL (       1 calls)
     electrons    :      5.54s CPU      5.56s WALL (       1 calls)

     Called by init_run:
     wfcinit      :      0.00s CPU      0.00s WALL (       1 calls)
     potinit      :      0.08s CPU      0.07s WALL (       1 calls)

     Called by electrons:
     c_bands      :      5.54s CPU      5.56s WALL (       1 calls)
     v_of_rho     :      0.06s CPU      0.05s WALL (       1 calls)

     Called by c_bands:
     init_us_2    :      0.02s CPU      0.01s WALL (       8 calls)
     cegterg      :      5.23s CPU      5.27s WALL (      20 calls)

     Called by *egterg:
     h_psi        :      4.62s CPU      4.70s WALL (     360 calls)
     g_psi        :      0.02s CPU      0.06s WALL (     332 calls)
     cdiaghg      :      0.23s CPU      0.18s WALL (     340 calls)

     Called by h_psi:
     add_vuspsi   :      0.04s CPU      0.04s WALL (     360 calls)

     General routines
     calbec       :      0.05s CPU      0.07s WALL (     360 calls)
     fft          :      0.04s CPU      0.03s WALL (      11 calls)
     fftw         :      4.23s CPU      4.15s WALL (    2854 calls)
 
     Parallel routines
     fft_scatter  :      1.15s CPU      1.15s WALL (    2865 calls)
 
     PWSCF        :     6.45s CPU         6.59s WALL

 
   This run was terminated on:  10:58:25   1Aug2013            

=------------------------------------------------------------------------------=
   JOB DONE.
=------------------------------------------------------------------------------=
