
     Program POST-PROC v.4.0.3  starts ...
     Today is 26Dec2008 at 12:10:40 

     Parallel version (MPI)

     Number of processors in use:       4
     R & G space division:  proc/pool =    4

     Planes per process (thick) : nr3 = 24 npp =   6 ncplane = 9216
 
     Proc/  planes cols     G    planes cols    G      columns  G
     Pool       (dense grid)       (smooth grid)      (wavefct grid)
       1      6   1592    22586    6   1592    22586    540     4450
       2      6   1591    22585    6   1591    22585    539     4449
       3      6   1593    22585    6   1593    22585    541     4449
       4      6   1593    22585    6   1593    22585    541     4449
     tot     24   6369    90341   24   6369    90341   2161    17797
 

     Check: negative/imaginary core charge=   -0.000021    0.000000

     Gaussian broadening (read from file): ngauss,degauss=   0    0.010000


     Calling projwave .... 

Projection on atomic states:

     state #   1: atom   1 (Au ), wfc  1 (l=0 m= 1)
     state #   2: atom   1 (Au ), wfc  2 (l=1 m= 1)
     state #   3: atom   1 (Au ), wfc  2 (l=1 m= 2)
     state #   4: atom   1 (Au ), wfc  2 (l=1 m= 3)
     state #   5: atom   1 (Au ), wfc  3 (l=2 m= 1)
     state #   6: atom   1 (Au ), wfc  3 (l=2 m= 2)
     state #   7: atom   1 (Au ), wfc  3 (l=2 m= 3)
     state #   8: atom   1 (Au ), wfc  3 (l=2 m= 4)
     state #   9: atom   1 (Au ), wfc  3 (l=2 m= 5)

 k =   0.0000000000  0.0000000000  0.0000000000
     e =   -10.55414 eV
     psi = 0.749*[#   5]+0.246*[#   1]+
    |psi|^2 = 0.996
     e =    -6.58447 eV
     psi = 1.000*[#   8]+
    |psi|^2 = 1.000
     e =    -6.58438 eV
     psi = 1.000*[#   9]+
    |psi|^2 = 1.000
     e =    -6.32490 eV
     psi = 0.747*[#   1]+0.249*[#   5]+
    |psi|^2 = 0.997
     e =    -4.90510 eV
     psi = 0.500*[#   6]+0.500*[#   7]+
    |psi|^2 = 1.000
     e =    -4.90510 eV
     psi = 0.500*[#   6]+0.500*[#   7]+
    |psi|^2 = 1.000
     e =    -1.13166 eV
     psi = 0.465*[#   3]+0.465*[#   4]+
    |psi|^2 = 0.930
     e =    -1.13166 eV
     psi = 0.465*[#   3]+0.465*[#   4]+
    |psi|^2 = 0.930
     e =     1.14499 eV
     psi = 0.002*[#   1]+
    |psi|^2 = 0.002
     e =     2.11034 eV
     psi = 
    |psi|^2 = 0.000

 k =   0.0000000000  0.0000000000  0.5291766857
     e =    -9.74914 eV
     psi = 0.755*[#   5]+0.201*[#   1]+0.043*[#   2]+
    |psi|^2 = 0.999
     e =    -6.48900 eV
     psi = 1.000*[#   8]+
    |psi|^2 = 1.000
     e =    -6.48889 eV
     psi = 1.000*[#   9]+
    |psi|^2 = 1.000
     e =    -6.09372 eV
     psi = 0.567*[#   1]+0.242*[#   5]+0.190*[#   2]+
    |psi|^2 = 0.999
     e =    -5.63426 eV
     psi = 0.485*[#   6]+0.485*[#   7]+0.014*[#   3]+0.014*[#   4]+
    |psi|^2 = 0.997
     e =    -5.63426 eV
     psi = 0.485*[#   6]+0.485*[#   7]+0.014*[#   3]+0.014*[#   4]+
    |psi|^2 = 0.997
     e =    -0.42406 eV
     psi = 0.459*[#   3]+0.459*[#   4]+0.015*[#   6]+0.015*[#   7]+
    |psi|^2 = 0.949
     e =    -0.42406 eV
     psi = 0.459*[#   3]+0.459*[#   4]+0.015*[#   6]+0.015*[#   7]+
    |psi|^2 = 0.949
     e =     1.51309 eV
     psi = 0.231*[#   2]+0.066*[#   1]+
    |psi|^2 = 0.297
     e =     2.47886 eV
     psi = 
    |psi|^2 = 0.000

 k =   0.0000000000  0.0000000000  1.0583533715
     e =    -7.55209 eV
     psi = 0.853*[#   5]+0.077*[#   1]+0.067*[#   2]+
    |psi|^2 = 0.997
     e =    -6.90923 eV
     psi = 0.488*[#   6]+0.488*[#   7]+0.011*[#   3]+0.011*[#   4]+
    |psi|^2 = 0.998
     e =    -6.90923 eV
     psi = 0.488*[#   6]+0.488*[#   7]+0.011*[#   3]+0.011*[#   4]+
    |psi|^2 = 0.998
     e =    -6.25144 eV
     psi = 1.000*[#   8]+
    |psi|^2 = 1.000
     e =    -6.25128 eV
     psi = 1.000*[#   9]+
    |psi|^2 = 1.000
     e =    -5.37559 eV
     psi = 0.499*[#   1]+0.351*[#   2]+0.146*[#   5]+
    |psi|^2 = 0.996
     e =     1.08958 eV
     psi = 0.472*[#   3]+0.472*[#   4]+0.011*[#   6]+0.011*[#   7]+
    |psi|^2 = 0.967
     e =     1.08958 eV
     psi = 0.472*[#   3]+0.472*[#   4]+0.011*[#   6]+0.011*[#   7]+
    |psi|^2 = 0.967
     e =     2.61895 eV
     psi = 0.175*[#   2]+0.102*[#   1]+
    |psi|^2 = 0.277
     e =     3.58442 eV
     psi = 
    |psi|^2 = 0.000

 k =   0.0000000000  0.0000000000  1.5875300572
     e =    -7.88633 eV
     psi = 0.497*[#   6]+0.497*[#   7]+0.003*[#   3]+0.003*[#   4]+
    |psi|^2 = 0.999
     e =    -7.88633 eV
     psi = 0.497*[#   6]+0.497*[#   7]+0.003*[#   3]+0.003*[#   4]+
    |psi|^2 = 0.999
     e =    -6.00306 eV
     psi = 1.000*[#   8]+
    |psi|^2 = 1.000
     e =    -6.00287 eV
     psi = 1.000*[#   9]+
    |psi|^2 = 1.000
     e =    -5.55916 eV
     psi = 0.938*[#   5]+0.060*[#   1]+
    |psi|^2 = 0.999
     e =    -3.20619 eV
     psi = 0.561*[#   2]+0.383*[#   1]+0.031*[#   5]+
    |psi|^2 = 0.975
     e =     3.07356 eV
     psi = 0.457*[#   3]+0.457*[#   4]+0.002*[#   6]+0.002*[#   7]+
    |psi|^2 = 0.918
     e =     3.07356 eV
     psi = 0.457*[#   3]+0.457*[#   4]+0.002*[#   6]+0.002*[#   7]+
    |psi|^2 = 0.918
     e =     4.47454 eV
     psi = 0.080*[#   2]+0.032*[#   1]+
    |psi|^2 = 0.112
     e =     5.42688 eV
     psi = 
    |psi|^2 = 0.000

 k =   0.0000000000  0.0000000000  2.1167067430
     e =    -8.24161 eV
     psi = 0.500*[#   6]+0.500*[#   7]+
    |psi|^2 = 0.999
     e =    -8.24161 eV
     psi = 0.500*[#   6]+0.500*[#   7]+
    |psi|^2 = 0.999
     e =    -5.89675 eV
     psi = 1.000*[#   8]+
    |psi|^2 = 1.000
     e =    -5.89656 eV
     psi = 1.000*[#   9]+
    |psi|^2 = 1.000
     e =    -5.10467 eV
     psi = 0.861*[#   5]+0.139*[#   1]+
    |psi|^2 = 1.000
     e =    -0.13077 eV
     psi = 0.969*[#   2]+
    |psi|^2 = 0.969
     e =     2.28979 eV
     psi = 0.824*[#   1]+0.132*[#   5]+
    |psi|^2 = 0.956
     e =     4.79125 eV
     psi = 0.417*[#   3]+0.417*[#   4]+
    |psi|^2 = 0.835
     e =     4.79125 eV
     psi = 0.417*[#   3]+0.417*[#   4]+
    |psi|^2 = 0.835
     e =     7.02279 eV
     psi = 
    |psi|^2 = 0.000

 k =   0.0000000000  0.0000000000  2.6458834287
     e =    -7.88633 eV
     psi = 0.497*[#   6]+0.497*[#   7]+0.003*[#   3]+0.003*[#   4]+
    |psi|^2 = 0.999
     e =    -7.88633 eV
     psi = 0.497*[#   6]+0.497*[#   7]+0.003*[#   3]+0.003*[#   4]+
    |psi|^2 = 0.999
     e =    -6.00306 eV
     psi = 1.000*[#   8]+
    |psi|^2 = 1.000
     e =    -6.00287 eV
     psi = 1.000*[#   9]+
    |psi|^2 = 1.000
     e =    -5.55916 eV
     psi = 0.938*[#   5]+0.060*[#   1]+
    |psi|^2 = 0.999
     e =    -3.20619 eV
     psi = 0.561*[#   2]+0.383*[#   1]+0.031*[#   5]+
    |psi|^2 = 0.975
     e =     3.07356 eV
     psi = 0.457*[#   3]+0.457*[#   4]+0.002*[#   6]+0.002*[#   7]+
    |psi|^2 = 0.918
     e =     3.07356 eV
     psi = 0.457*[#   3]+0.457*[#   4]+0.002*[#   6]+0.002*[#   7]+
    |psi|^2 = 0.918
     e =     4.47454 eV
     psi = 0.080*[#   2]+0.032*[#   1]+
    |psi|^2 = 0.112
     e =     5.42688 eV
     psi = 
    |psi|^2 = 0.000

 k =   0.0000000000  0.0000000000  3.1750601145
     e =    -7.55209 eV
     psi = 0.853*[#   5]+0.077*[#   1]+0.067*[#   2]+
    |psi|^2 = 0.997
     e =    -6.90923 eV
     psi = 0.488*[#   6]+0.488*[#   7]+0.011*[#   3]+0.011*[#   4]+
    |psi|^2 = 0.998
     e =    -6.90923 eV
     psi = 0.488*[#   6]+0.488*[#   7]+0.011*[#   3]+0.011*[#   4]+
    |psi|^2 = 0.998
     e =    -6.25144 eV
     psi = 1.000*[#   8]+
    |psi|^2 = 1.000
     e =    -6.25128 eV
     psi = 1.000*[#   9]+
    |psi|^2 = 1.000
     e =    -5.37559 eV
     psi = 0.499*[#   1]+0.351*[#   2]+0.146*[#   5]+
    |psi|^2 = 0.996
     e =     1.08958 eV
     psi = 0.472*[#   3]+0.472*[#   4]+0.011*[#   6]+0.011*[#   7]+
    |psi|^2 = 0.967
     e =     1.08958 eV
     psi = 0.472*[#   3]+0.472*[#   4]+0.011*[#   6]+0.011*[#   7]+
    |psi|^2 = 0.967
     e =     2.61895 eV
     psi = 0.175*[#   2]+0.102*[#   1]+
    |psi|^2 = 0.277
     e =     3.58442 eV
     psi = 
    |psi|^2 = 0.000

 k =   0.0000000000  0.0000000000  3.7042368002
     e =    -9.74914 eV
     psi = 0.755*[#   5]+0.201*[#   1]+0.043*[#   2]+
    |psi|^2 = 0.999
     e =    -6.48900 eV
     psi = 1.000*[#   8]+
    |psi|^2 = 1.000
     e =    -6.48889 eV
     psi = 1.000*[#   9]+
    |psi|^2 = 1.000
     e =    -6.09372 eV
     psi = 0.567*[#   1]+0.242*[#   5]+0.190*[#   2]+
    |psi|^2 = 0.999
     e =    -5.63426 eV
     psi = 0.485*[#   6]+0.485*[#   7]+0.014*[#   3]+0.014*[#   4]+
    |psi|^2 = 0.997
     e =    -5.63426 eV
     psi = 0.485*[#   6]+0.485*[#   7]+0.014*[#   3]+0.014*[#   4]+
    |psi|^2 = 0.997
     e =    -0.42406 eV
     psi = 0.459*[#   3]+0.459*[#   4]+0.015*[#   6]+0.015*[#   7]+
    |psi|^2 = 0.949
     e =    -0.42406 eV
     psi = 0.459*[#   3]+0.459*[#   4]+0.015*[#   6]+0.015*[#   7]+
    |psi|^2 = 0.949
     e =     1.51309 eV
     psi = 0.231*[#   2]+0.066*[#   1]+
    |psi|^2 = 0.297
     e =     2.47886 eV
     psi = 
    |psi|^2 = 0.000

Lowdin Charges: 

     Atom #   1: total charge =  10.9863, s =  0.9843, p =  0.3814, d =  9.6205, 
     Spilling Parameter:   0.0012
