
     Program POST-PROC v.3.2    starts ...
     Today is  7Jun2007 at 17:23: 1 

     nbndx  =    10  nbnd   =    10  natomwfc =     9  npwx   =    4031
     nelec  =  11.00  nkb   =    18  ngl    =    4885

     negative rho (up, down):  0.100E-02 0.000E+00

     Gaussian broadening (read from file): ngauss,degauss=   0    0.010000


     Calling projwave .... 

Projection on atomic states:

     state #  1: atom   1 (Au ), wfc  1 (l=0 m= 1)
     state #  2: atom   1 (Au ), wfc  2 (l=1 m= 1)
     state #  3: atom   1 (Au ), wfc  2 (l=1 m= 2)
     state #  4: atom   1 (Au ), wfc  2 (l=1 m= 3)
     state #  5: atom   1 (Au ), wfc  3 (l=2 m= 1)
     state #  6: atom   1 (Au ), wfc  3 (l=2 m= 2)
     state #  7: atom   1 (Au ), wfc  3 (l=2 m= 3)
     state #  8: atom   1 (Au ), wfc  3 (l=2 m= 4)
     state #  9: atom   1 (Au ), wfc  3 (l=2 m= 5)

 k =   0.0000000000  0.0000000000  0.0000000000
     e =   -10.49747 eV
     psi = 0.726*[#  5]+0.270*[#  1]+
    |psi|^2 = 0.996
     e =    -6.60701 eV
     psi = 0.999*[#  8]+
    |psi|^2 = 0.999
     e =    -6.60673 eV
     psi = 0.999*[#  9]+
    |psi|^2 = 0.999
     e =    -6.37868 eV
     psi = 0.729*[#  1]+0.271*[#  5]+
    |psi|^2 = 1.000
     e =    -4.86617 eV
     psi = 0.500*[#  6]+0.500*[#  7]+
    |psi|^2 = 1.000
     e =    -4.86617 eV
     psi = 0.500*[#  6]+0.500*[#  7]+
    |psi|^2 = 1.000
     e =    -1.15600 eV
     psi = 0.484*[#  3]+0.484*[#  4]+
    |psi|^2 = 0.968
     e =    -1.15600 eV
     psi = 0.484*[#  3]+0.484*[#  4]+
    |psi|^2 = 0.968
     e =     1.01252 eV
     psi = 
    |psi|^2 = 0.001
     e =     1.96810 eV
     psi = 
    |psi|^2 = 0.000

 k =   0.0000000000  0.0000000000  0.5291766857
     e =    -9.68321 eV
     psi = 0.736*[#  5]+0.215*[#  1]+0.047*[#  2]+
    |psi|^2 = 0.998
     e =    -6.51037 eV
     psi = 0.999*[#  8]+
    |psi|^2 = 0.999
     e =    -6.51027 eV
     psi = 0.999*[#  9]+
    |psi|^2 = 0.999
     e =    -6.15041 eV
     psi = 0.547*[#  1]+0.261*[#  5]+0.192*[#  2]+
    |psi|^2 = 1.000
     e =    -5.60137 eV
     psi = 0.481*[#  6]+0.481*[#  7]+0.017*[#  3]+0.017*[#  4]+
    |psi|^2 = 0.996
     e =    -5.60137 eV
     psi = 0.481*[#  6]+0.481*[#  7]+0.017*[#  3]+0.017*[#  4]+
    |psi|^2 = 0.996
     e =    -0.45383 eV
     psi = 0.473*[#  3]+0.473*[#  4]+0.018*[#  6]+0.018*[#  7]+
    |psi|^2 = 0.983
     e =    -0.45383 eV
     psi = 0.473*[#  3]+0.473*[#  4]+0.018*[#  6]+0.018*[#  7]+
    |psi|^2 = 0.983
     e =     1.37944 eV
     psi = 0.265*[#  2]+0.080*[#  1]+
    |psi|^2 = 0.346
     e =     2.33601 eV
     psi = 
    |psi|^2 = 0.000

 k =   0.0000000000  0.0000000000  1.0583533715
     e =    -7.47242 eV
     psi = 0.843*[#  5]+0.077*[#  2]+0.073*[#  1]+
    |psi|^2 = 0.993
     e =    -6.88452 eV
     psi = 0.483*[#  6]+0.483*[#  7]+0.016*[#  3]+0.016*[#  4]+
    |psi|^2 = 0.997
     e =    -6.88452 eV
     psi = 0.483*[#  6]+0.483*[#  7]+0.016*[#  3]+0.016*[#  4]+
    |psi|^2 = 0.997
     e =    -6.27327 eV
     psi = 0.999*[#  9]+
    |psi|^2 = 0.999
     e =    -6.27252 eV
     psi = 0.999*[#  8]+
    |psi|^2 = 0.999
     e =    -5.44067 eV
     psi = 0.502*[#  1]+0.344*[#  2]+0.152*[#  5]+
    |psi|^2 = 0.998
     e =     1.04336 eV
     psi = 0.478*[#  3]+0.478*[#  4]+0.015*[#  6]+0.015*[#  7]+
    |psi|^2 = 0.987
     e =     1.04336 eV
     psi = 0.478*[#  3]+0.478*[#  4]+0.015*[#  6]+0.015*[#  7]+
    |psi|^2 = 0.987
     e =     2.48234 eV
     psi = 0.175*[#  2]+0.102*[#  1]+
    |psi|^2 = 0.277
     e =     3.43971 eV
     psi = 
    |psi|^2 = 0.000

 k =   0.0000000000  0.0000000000  1.5875300572
     e =    -7.86656 eV
     psi = 0.495*[#  6]+0.495*[#  7]+0.005*[#  3]+0.005*[#  4]+
    |psi|^2 = 0.999
     e =    -7.86656 eV
     psi = 0.495*[#  6]+0.495*[#  7]+0.005*[#  3]+0.005*[#  4]+
    |psi|^2 = 0.999
     e =    -6.02506 eV
     psi = 1.000*[#  9]+
    |psi|^2 = 1.000
     e =    -6.02433 eV
     psi = 1.000*[#  8]+
    |psi|^2 = 1.000
     e =    -5.54867 eV
     psi = 0.910*[#  5]+0.087*[#  1]+
    |psi|^2 = 0.997
     e =    -3.21919 eV
     psi = 0.574*[#  2]+0.371*[#  1]+0.040*[#  5]+
    |psi|^2 = 0.985
     e =     3.01547 eV
     psi = 0.451*[#  3]+0.451*[#  4]+0.004*[#  6]+0.004*[#  7]+
    |psi|^2 = 0.910
     e =     3.01547 eV
     psi = 0.451*[#  3]+0.451*[#  4]+0.004*[#  6]+0.004*[#  7]+
    |psi|^2 = 0.910
     e =     4.33542 eV
     psi = 0.057*[#  2]+0.024*[#  1]+
    |psi|^2 = 0.082
     e =     5.27929 eV
     psi = 
    |psi|^2 = 0.000

 k =   0.0000000000  0.0000000000  2.1167067430
     e =    -8.22296 eV
     psi = 0.500*[#  6]+0.500*[#  7]+
    |psi|^2 = 0.999
     e =    -8.22296 eV
     psi = 0.500*[#  6]+0.500*[#  7]+
    |psi|^2 = 0.999
     e =    -5.91762 eV
     psi = 1.000*[#  9]+
    |psi|^2 = 1.000
     e =    -5.91704 eV
     psi = 1.000*[#  8]+
    |psi|^2 = 1.000
     e =    -5.12102 eV
     psi = 0.827*[#  5]+0.173*[#  1]+
    |psi|^2 = 1.000
     e =    -0.15149 eV
     psi = 0.988*[#  2]+
    |psi|^2 = 0.988
     e =     2.28994 eV
     psi = 0.791*[#  1]+0.168*[#  5]+
    |psi|^2 = 0.958
     e =     4.74772 eV
     psi = 0.431*[#  3]+0.431*[#  4]+
    |psi|^2 = 0.862
     e =     4.74772 eV
     psi = 0.431*[#  3]+0.431*[#  4]+
    |psi|^2 = 0.862
     e =     6.87900 eV
     psi = 
    |psi|^2 = 0.000

 k =   0.0000000000  0.0000000000  2.6458834287
     e =    -7.86656 eV
     psi = 0.495*[#  6]+0.495*[#  7]+0.005*[#  3]+0.005*[#  4]+
    |psi|^2 = 0.999
     e =    -7.86656 eV
     psi = 0.495*[#  6]+0.495*[#  7]+0.005*[#  3]+0.005*[#  4]+
    |psi|^2 = 0.999
     e =    -6.02506 eV
     psi = 1.000*[#  9]+
    |psi|^2 = 1.000
     e =    -6.02433 eV
     psi = 1.000*[#  8]+
    |psi|^2 = 1.000
     e =    -5.54867 eV
     psi = 0.910*[#  5]+0.087*[#  1]+
    |psi|^2 = 0.997
     e =    -3.21919 eV
     psi = 0.574*[#  2]+0.371*[#  1]+0.040*[#  5]+
    |psi|^2 = 0.985
     e =     3.01547 eV
     psi = 0.451*[#  3]+0.451*[#  4]+0.004*[#  6]+0.004*[#  7]+
    |psi|^2 = 0.910
     e =     3.01547 eV
     psi = 0.451*[#  3]+0.451*[#  4]+0.004*[#  6]+0.004*[#  7]+
    |psi|^2 = 0.910
     e =     4.33542 eV
     psi = 0.057*[#  2]+0.024*[#  1]+
    |psi|^2 = 0.082
     e =     5.27929 eV
     psi = 
    |psi|^2 = 0.000

 k =   0.0000000000  0.0000000000  3.1750601145
     e =    -7.47242 eV
     psi = 0.843*[#  5]+0.077*[#  2]+0.073*[#  1]+
    |psi|^2 = 0.993
     e =    -6.88452 eV
     psi = 0.483*[#  6]+0.483*[#  7]+0.016*[#  3]+0.016*[#  4]+
    |psi|^2 = 0.997
     e =    -6.88452 eV
     psi = 0.483*[#  6]+0.483*[#  7]+0.016*[#  3]+0.016*[#  4]+
    |psi|^2 = 0.997
     e =    -6.27327 eV
     psi = 0.999*[#  9]+
    |psi|^2 = 0.999
     e =    -6.27252 eV
     psi = 0.999*[#  8]+
    |psi|^2 = 0.999
     e =    -5.44067 eV
     psi = 0.502*[#  1]+0.344*[#  2]+0.152*[#  5]+
    |psi|^2 = 0.998
     e =     1.04336 eV
     psi = 0.478*[#  3]+0.478*[#  4]+0.015*[#  6]+0.015*[#  7]+
    |psi|^2 = 0.987
     e =     1.04336 eV
     psi = 0.478*[#  3]+0.478*[#  4]+0.015*[#  6]+0.015*[#  7]+
    |psi|^2 = 0.987
     e =     2.48234 eV
     psi = 0.175*[#  2]+0.102*[#  1]+
    |psi|^2 = 0.277
     e =     3.43971 eV
     psi = 
    |psi|^2 = 0.000

 k =   0.0000000000  0.0000000000  3.7042368002
     e =    -9.68321 eV
     psi = 0.736*[#  5]+0.215*[#  1]+0.047*[#  2]+
    |psi|^2 = 0.998
     e =    -6.51037 eV
     psi = 0.999*[#  8]+
    |psi|^2 = 0.999
     e =    -6.51027 eV
     psi = 0.999*[#  9]+
    |psi|^2 = 0.999
     e =    -6.15041 eV
     psi = 0.547*[#  1]+0.261*[#  5]+0.192*[#  2]+
    |psi|^2 = 1.000
     e =    -5.60137 eV
     psi = 0.481*[#  6]+0.481*[#  7]+0.017*[#  3]+0.017*[#  4]+
    |psi|^2 = 0.996
     e =    -5.60137 eV
     psi = 0.481*[#  6]+0.481*[#  7]+0.017*[#  3]+0.017*[#  4]+
    |psi|^2 = 0.996
     e =    -0.45383 eV
     psi = 0.473*[#  3]+0.473*[#  4]+0.018*[#  6]+0.018*[#  7]+
    |psi|^2 = 0.983
     e =    -0.45383 eV
     psi = 0.473*[#  3]+0.473*[#  4]+0.018*[#  6]+0.018*[#  7]+
    |psi|^2 = 0.983
     e =     1.37944 eV
     psi = 0.265*[#  2]+0.080*[#  1]+
    |psi|^2 = 0.346
     e =     2.33601 eV
     psi = 
    |psi|^2 = 0.000

Lowdin Charges: 

     Atom #   1: total charge =  10.9810, s, p, d, f =   1.0048  0.4059  9.5703
     Spilling Parameter:   0.0017
