
     Program POST-PROC v.3.2    starts ...
     Today is  2Nov2006 at 11: 4:31 

     nbndx  =    10  nbnd   =    10  natomwfc =     9  npwx   =   11303
     nelec  =  11.00  nkb   =     8  ngl    =    4885

     Check: negative/imaginary core charge=   -0.000021    0.000000

     Gaussian broadening (read from file): ngauss,degauss=   0    0.010000


     Calling projwave .... 

Projection on atomic states:

     state #  1: atom   1 (Au ), wfc  1 (l=0 m= 1)
     state #  2: atom   1 (Au ), wfc  2 (l=1 m= 1)
     state #  3: atom   1 (Au ), wfc  2 (l=1 m= 2)
     state #  4: atom   1 (Au ), wfc  2 (l=1 m= 3)
     state #  5: atom   1 (Au ), wfc  3 (l=2 m= 1)
     state #  6: atom   1 (Au ), wfc  3 (l=2 m= 2)
     state #  7: atom   1 (Au ), wfc  3 (l=2 m= 3)
     state #  8: atom   1 (Au ), wfc  3 (l=2 m= 4)
     state #  9: atom   1 (Au ), wfc  3 (l=2 m= 5)

 k =   0.0000000000  0.0000000000  0.0000000000
     e =   -10.55421 eV
     psi = 0.749*[#  5]+0.246*[#  1]+
    |psi|^2 = 0.996
     e =    -6.58455 eV
     psi = 1.000*[#  8]+
    |psi|^2 = 1.000
     e =    -6.58446 eV
     psi = 1.000*[#  9]+
    |psi|^2 = 1.000
     e =    -6.32494 eV
     psi = 0.747*[#  1]+0.249*[#  5]+
    |psi|^2 = 0.997
     e =    -4.90518 eV
     psi = 0.500*[#  6]+0.500*[#  7]+
    |psi|^2 = 1.000
     e =    -4.90518 eV
     psi = 0.500*[#  6]+0.500*[#  7]+
    |psi|^2 = 1.000
     e =    -1.13167 eV
     psi = 0.465*[#  3]+0.465*[#  4]+
    |psi|^2 = 0.930
     e =    -1.13167 eV
     psi = 0.465*[#  3]+0.465*[#  4]+
    |psi|^2 = 0.930
     e =     1.14499 eV
     psi = 0.002*[#  1]+
    |psi|^2 = 0.002
     e =     2.11034 eV
     psi = 
    |psi|^2 = 0.000

 k =   0.0000000000  0.0000000000  0.5291766857
     e =    -9.74922 eV
     psi = 0.755*[#  5]+0.201*[#  1]+0.043*[#  2]+
    |psi|^2 = 0.999
     e =    -6.48907 eV
     psi = 1.000*[#  8]+
    |psi|^2 = 1.000
     e =    -6.48896 eV
     psi = 1.000*[#  9]+
    |psi|^2 = 1.000
     e =    -6.09376 eV
     psi = 0.567*[#  1]+0.242*[#  5]+0.190*[#  2]+
    |psi|^2 = 0.999
     e =    -5.63434 eV
     psi = 0.485*[#  6]+0.485*[#  7]+0.014*[#  3]+0.014*[#  4]+
    |psi|^2 = 0.997
     e =    -5.63434 eV
     psi = 0.485*[#  6]+0.485*[#  7]+0.014*[#  3]+0.014*[#  4]+
    |psi|^2 = 0.997
     e =    -0.42407 eV
     psi = 0.459*[#  3]+0.459*[#  4]+0.015*[#  6]+0.015*[#  7]+
    |psi|^2 = 0.949
     e =    -0.42407 eV
     psi = 0.459*[#  3]+0.459*[#  4]+0.015*[#  6]+0.015*[#  7]+
    |psi|^2 = 0.949
     e =     1.51309 eV
     psi = 0.231*[#  2]+0.066*[#  1]+
    |psi|^2 = 0.297
     e =     2.47886 eV
     psi = 
    |psi|^2 = 0.000

 k =   0.0000000000  0.0000000000  1.0583533715
     e =    -7.55217 eV
     psi = 0.853*[#  5]+0.077*[#  1]+0.067*[#  2]+
    |psi|^2 = 0.997
     e =    -6.90931 eV
     psi = 0.488*[#  6]+0.488*[#  7]+0.011*[#  3]+0.011*[#  4]+
    |psi|^2 = 0.998
     e =    -6.90931 eV
     psi = 0.488*[#  6]+0.488*[#  7]+0.011*[#  3]+0.011*[#  4]+
    |psi|^2 = 0.998
     e =    -6.25151 eV
     psi = 1.000*[#  8]+
    |psi|^2 = 1.000
     e =    -6.25136 eV
     psi = 1.000*[#  9]+
    |psi|^2 = 1.000
     e =    -5.37562 eV
     psi = 0.499*[#  1]+0.351*[#  2]+0.146*[#  5]+
    |psi|^2 = 0.996
     e =     1.08956 eV
     psi = 0.472*[#  3]+0.472*[#  4]+0.011*[#  6]+0.011*[#  7]+
    |psi|^2 = 0.967
     e =     1.08956 eV
     psi = 0.472*[#  3]+0.472*[#  4]+0.011*[#  6]+0.011*[#  7]+
    |psi|^2 = 0.967
     e =     2.61895 eV
     psi = 0.175*[#  2]+0.102*[#  1]+
    |psi|^2 = 0.277
     e =     3.58442 eV
     psi = 
    |psi|^2 = 0.000

 k =   0.0000000000  0.0000000000  1.5875300572
     e =    -7.88641 eV
     psi = 0.497*[#  6]+0.497*[#  7]+0.003*[#  3]+0.003*[#  4]+
    |psi|^2 = 0.999
     e =    -7.88641 eV
     psi = 0.497*[#  6]+0.497*[#  7]+0.003*[#  3]+0.003*[#  4]+
    |psi|^2 = 0.999
     e =    -6.00314 eV
     psi = 1.000*[#  8]+
    |psi|^2 = 1.000
     e =    -6.00295 eV
     psi = 1.000*[#  9]+
    |psi|^2 = 1.000
     e =    -5.55924 eV
     psi = 0.938*[#  5]+0.060*[#  1]+
    |psi|^2 = 0.999
     e =    -3.20623 eV
     psi = 0.561*[#  2]+0.383*[#  1]+0.031*[#  5]+
    |psi|^2 = 0.975
     e =     3.07354 eV
     psi = 0.457*[#  3]+0.457*[#  4]+0.002*[#  6]+0.002*[#  7]+
    |psi|^2 = 0.918
     e =     3.07354 eV
     psi = 0.457*[#  3]+0.457*[#  4]+0.002*[#  6]+0.002*[#  7]+
    |psi|^2 = 0.918
     e =     4.47454 eV
     psi = 0.080*[#  2]+0.032*[#  1]+
    |psi|^2 = 0.112
     e =     5.42688 eV
     psi = 
    |psi|^2 = 0.000

 k =   0.0000000000  0.0000000000  2.1167067430
     e =    -8.24168 eV
     psi = 0.500*[#  6]+0.500*[#  7]+
    |psi|^2 = 0.999
     e =    -8.24168 eV
     psi = 0.500*[#  6]+0.500*[#  7]+
    |psi|^2 = 0.999
     e =    -5.89683 eV
     psi = 1.000*[#  8]+
    |psi|^2 = 1.000
     e =    -5.89663 eV
     psi = 1.000*[#  9]+
    |psi|^2 = 1.000
     e =    -5.10474 eV
     psi = 0.861*[#  5]+0.139*[#  1]+
    |psi|^2 = 1.000
     e =    -0.13080 eV
     psi = 0.969*[#  2]+
    |psi|^2 = 0.969
     e =     2.28974 eV
     psi = 0.824*[#  1]+0.132*[#  5]+
    |psi|^2 = 0.956
     e =     4.79123 eV
     psi = 0.417*[#  3]+0.417*[#  4]+
    |psi|^2 = 0.835
     e =     4.79123 eV
     psi = 0.417*[#  3]+0.417*[#  4]+
    |psi|^2 = 0.835
     e =     7.02279 eV
     psi = 
    |psi|^2 = 0.000

 k =   0.0000000000  0.0000000000  2.6458834287
     e =    -7.88641 eV
     psi = 0.497*[#  6]+0.497*[#  7]+0.003*[#  3]+0.003*[#  4]+
    |psi|^2 = 0.999
     e =    -7.88641 eV
     psi = 0.497*[#  6]+0.497*[#  7]+0.003*[#  3]+0.003*[#  4]+
    |psi|^2 = 0.999
     e =    -6.00314 eV
     psi = 1.000*[#  8]+
    |psi|^2 = 1.000
     e =    -6.00295 eV
     psi = 1.000*[#  9]+
    |psi|^2 = 1.000
     e =    -5.55924 eV
     psi = 0.938*[#  5]+0.060*[#  1]+
    |psi|^2 = 0.999
     e =    -3.20623 eV
     psi = 0.561*[#  2]+0.383*[#  1]+0.031*[#  5]+
    |psi|^2 = 0.975
     e =     3.07354 eV
     psi = 0.457*[#  3]+0.457*[#  4]+0.002*[#  6]+0.002*[#  7]+
    |psi|^2 = 0.918
     e =     3.07354 eV
     psi = 0.457*[#  3]+0.457*[#  4]+0.002*[#  6]+0.002*[#  7]+
    |psi|^2 = 0.918
     e =     4.47454 eV
     psi = 0.080*[#  2]+0.032*[#  1]+
    |psi|^2 = 0.112
     e =     5.42688 eV
     psi = 
    |psi|^2 = 0.000

 k =   0.0000000000  0.0000000000  3.1750601145
     e =    -7.55217 eV
     psi = 0.853*[#  5]+0.077*[#  1]+0.067*[#  2]+
    |psi|^2 = 0.997
     e =    -6.90931 eV
     psi = 0.488*[#  6]+0.488*[#  7]+0.011*[#  3]+0.011*[#  4]+
    |psi|^2 = 0.998
     e =    -6.90931 eV
     psi = 0.488*[#  6]+0.488*[#  7]+0.011*[#  3]+0.011*[#  4]+
    |psi|^2 = 0.998
     e =    -6.25151 eV
     psi = 1.000*[#  8]+
    |psi|^2 = 1.000
     e =    -6.25136 eV
     psi = 1.000*[#  9]+
    |psi|^2 = 1.000
     e =    -5.37562 eV
     psi = 0.499*[#  1]+0.351*[#  2]+0.146*[#  5]+
    |psi|^2 = 0.996
     e =     1.08956 eV
     psi = 0.472*[#  3]+0.472*[#  4]+0.011*[#  6]+0.011*[#  7]+
    |psi|^2 = 0.967
     e =     1.08956 eV
     psi = 0.472*[#  3]+0.472*[#  4]+0.011*[#  6]+0.011*[#  7]+
    |psi|^2 = 0.967
     e =     2.61895 eV
     psi = 0.175*[#  2]+0.102*[#  1]+
    |psi|^2 = 0.277
     e =     3.58442 eV
     psi = 
    |psi|^2 = 0.000

 k =   0.0000000000  0.0000000000  3.7042368002
     e =    -9.74922 eV
     psi = 0.755*[#  5]+0.201*[#  1]+0.043*[#  2]+
    |psi|^2 = 0.999
     e =    -6.48907 eV
     psi = 1.000*[#  8]+
    |psi|^2 = 1.000
     e =    -6.48896 eV
     psi = 1.000*[#  9]+
    |psi|^2 = 1.000
     e =    -6.09376 eV
     psi = 0.567*[#  1]+0.242*[#  5]+0.190*[#  2]+
    |psi|^2 = 0.999
     e =    -5.63434 eV
     psi = 0.485*[#  6]+0.485*[#  7]+0.014*[#  3]+0.014*[#  4]+
    |psi|^2 = 0.997
     e =    -5.63434 eV
     psi = 0.485*[#  6]+0.485*[#  7]+0.014*[#  3]+0.014*[#  4]+
    |psi|^2 = 0.997
     e =    -0.42407 eV
     psi = 0.459*[#  3]+0.459*[#  4]+0.015*[#  6]+0.015*[#  7]+
    |psi|^2 = 0.949
     e =    -0.42407 eV
     psi = 0.459*[#  3]+0.459*[#  4]+0.015*[#  6]+0.015*[#  7]+
    |psi|^2 = 0.949
     e =     1.51309 eV
     psi = 0.231*[#  2]+0.066*[#  1]+
    |psi|^2 = 0.297
     e =     2.47886 eV
     psi = 
    |psi|^2 = 0.000

Lowdin Charges: 

     Atom #   1: total charge =  10.9863, s, p, d, f =   0.9843  0.3814  9.6205
     Spilling Parameter:   0.0012
