
     Program POST-PROC v.4.0.3  starts ...
     Today is 26Dec2008 at 12:11:21 

     Parallel version (MPI)

     Number of processors in use:       4
     R & G space division:  proc/pool =    4

     Planes per process (thick) : nr3 = 24 npp =   6 ncplane = 9216
     Planes per process (smooth): nr3s= 15 npps=   4 ncplanes= 4096
 
     Proc/  planes cols     G    planes cols    G      columns  G
     Pool       (dense grid)       (smooth grid)      (wavefct grid)
       1      6   1592    22586    4    795     8005    301     1869
       2      6   1591    22585    4    795     8009    300     1868
       3      6   1593    22585    4    795     8003    300     1868
       4      6   1593    22585    3    796     8010    300     1868
     tot     24   6369    90341   15   3181    32027   1201     7473
 

     negative rho (up, down):  0.100E-02 0.000E+00

     Gaussian broadening (read from file): ngauss,degauss=   0    0.010000


     Calling projwave .... 

Projection on atomic states:

     state #   1: atom   1 (Au ), wfc  1 (l=0 m= 1)
     state #   2: atom   1 (Au ), wfc  2 (l=1 m= 1)
     state #   3: atom   1 (Au ), wfc  2 (l=1 m= 2)
     state #   4: atom   1 (Au ), wfc  2 (l=1 m= 3)
     state #   5: atom   1 (Au ), wfc  3 (l=2 m= 1)
     state #   6: atom   1 (Au ), wfc  3 (l=2 m= 2)
     state #   7: atom   1 (Au ), wfc  3 (l=2 m= 3)
     state #   8: atom   1 (Au ), wfc  3 (l=2 m= 4)
     state #   9: atom   1 (Au ), wfc  3 (l=2 m= 5)

 k =   0.0000000000  0.0000000000  0.0000000000
     e =   -10.49786 eV
     psi = 0.727*[#   5]+0.270*[#   1]+
    |psi|^2 = 0.996
     e =    -6.60741 eV
     psi = 0.999*[#   8]+
    |psi|^2 = 0.999
     e =    -6.60713 eV
     psi = 0.999*[#   9]+
    |psi|^2 = 0.999
     e =    -6.37891 eV
     psi = 0.729*[#   1]+0.271*[#   5]+
    |psi|^2 = 1.000
     e =    -4.86665 eV
     psi = 0.500*[#   6]+0.500*[#   7]+
    |psi|^2 = 1.000
     e =    -4.86665 eV
     psi = 0.500*[#   6]+0.500*[#   7]+
    |psi|^2 = 1.000
     e =    -1.15608 eV
     psi = 0.484*[#   3]+0.484*[#   4]+
    |psi|^2 = 0.968
     e =    -1.15608 eV
     psi = 0.484*[#   3]+0.484*[#   4]+
    |psi|^2 = 0.968
     e =     1.01253 eV
     psi = 
    |psi|^2 = 0.001
     e =     1.96812 eV
     psi = 
    |psi|^2 = 0.000

 k =   0.0000000000  0.0000000000  0.5291766857
     e =    -9.68360 eV
     psi = 0.736*[#   5]+0.215*[#   1]+0.047*[#   2]+
    |psi|^2 = 0.998
     e =    -6.51078 eV
     psi = 0.999*[#   8]+
    |psi|^2 = 0.999
     e =    -6.51068 eV
     psi = 0.999*[#   9]+
    |psi|^2 = 0.999
     e =    -6.15064 eV
     psi = 0.547*[#   1]+0.261*[#   5]+0.192*[#   2]+
    |psi|^2 = 1.000
     e =    -5.60182 eV
     psi = 0.481*[#   6]+0.481*[#   7]+0.017*[#   3]+0.017*[#   4]+
    |psi|^2 = 0.996
     e =    -5.60182 eV
     psi = 0.481*[#   6]+0.481*[#   7]+0.017*[#   3]+0.017*[#   4]+
    |psi|^2 = 0.996
     e =    -0.45392 eV
     psi = 0.473*[#   3]+0.473*[#   4]+0.018*[#   6]+0.018*[#   7]+
    |psi|^2 = 0.983
     e =    -0.45392 eV
     psi = 0.473*[#   3]+0.473*[#   4]+0.018*[#   6]+0.018*[#   7]+
    |psi|^2 = 0.983
     e =     1.37945 eV
     psi = 0.265*[#   2]+0.080*[#   1]+
    |psi|^2 = 0.346
     e =     2.33602 eV
     psi = 
    |psi|^2 = 0.000

 k =   0.0000000000  0.0000000000  1.0583533715
     e =    -7.47285 eV
     psi = 0.843*[#   5]+0.077*[#   2]+0.073*[#   1]+
    |psi|^2 = 0.993
     e =    -6.88494 eV
     psi = 0.483*[#   6]+0.483*[#   7]+0.016*[#   3]+0.016*[#   4]+
    |psi|^2 = 0.997
     e =    -6.88494 eV
     psi = 0.483*[#   6]+0.483*[#   7]+0.016*[#   3]+0.016*[#   4]+
    |psi|^2 = 0.997
     e =    -6.27369 eV
     psi = 0.999*[#   9]+
    |psi|^2 = 0.999
     e =    -6.27294 eV
     psi = 0.999*[#   8]+
    |psi|^2 = 0.999
     e =    -5.44088 eV
     psi = 0.502*[#   1]+0.344*[#   2]+0.151*[#   5]+
    |psi|^2 = 0.998
     e =     1.04328 eV
     psi = 0.478*[#   3]+0.478*[#   4]+0.015*[#   6]+0.015*[#   7]+
    |psi|^2 = 0.987
     e =     1.04328 eV
     psi = 0.478*[#   3]+0.478*[#   4]+0.015*[#   6]+0.015*[#   7]+
    |psi|^2 = 0.987
     e =     2.48235 eV
     psi = 0.175*[#   2]+0.102*[#   1]+
    |psi|^2 = 0.277
     e =     3.43972 eV
     psi = 
    |psi|^2 = 0.000

 k =   0.0000000000  0.0000000000  1.5875300572
     e =    -7.86697 eV
     psi = 0.495*[#   6]+0.495*[#   7]+0.005*[#   3]+0.005*[#   4]+
    |psi|^2 = 0.999
     e =    -7.86697 eV
     psi = 0.495*[#   6]+0.495*[#   7]+0.005*[#   3]+0.005*[#   4]+
    |psi|^2 = 0.999
     e =    -6.02549 eV
     psi = 1.000*[#   9]+
    |psi|^2 = 1.000
     e =    -6.02476 eV
     psi = 1.000*[#   8]+
    |psi|^2 = 1.000
     e =    -5.54909 eV
     psi = 0.910*[#   5]+0.087*[#   1]+
    |psi|^2 = 0.997
     e =    -3.21941 eV
     psi = 0.574*[#   2]+0.371*[#   1]+0.040*[#   5]+
    |psi|^2 = 0.985
     e =     3.01539 eV
     psi = 0.451*[#   3]+0.451*[#   4]+0.004*[#   6]+0.004*[#   7]+
    |psi|^2 = 0.910
     e =     3.01539 eV
     psi = 0.451*[#   3]+0.451*[#   4]+0.004*[#   6]+0.004*[#   7]+
    |psi|^2 = 0.910
     e =     4.33543 eV
     psi = 0.057*[#   2]+0.024*[#   1]+
    |psi|^2 = 0.082
     e =     5.27931 eV
     psi = 
    |psi|^2 = 0.000

 k =   0.0000000000  0.0000000000  2.1167067430
     e =    -8.22336 eV
     psi = 0.500*[#   6]+0.500*[#   7]+
    |psi|^2 = 0.999
     e =    -8.22336 eV
     psi = 0.500*[#   6]+0.500*[#   7]+
    |psi|^2 = 0.999
     e =    -5.91805 eV
     psi = 1.000*[#   9]+
    |psi|^2 = 1.000
     e =    -5.91747 eV
     psi = 1.000*[#   8]+
    |psi|^2 = 1.000
     e =    -5.12141 eV
     psi = 0.827*[#   5]+0.173*[#   1]+
    |psi|^2 = 1.000
     e =    -0.15168 eV
     psi = 0.988*[#   2]+
    |psi|^2 = 0.988
     e =     2.28964 eV
     psi = 0.791*[#   1]+0.168*[#   5]+
    |psi|^2 = 0.958
     e =     4.74764 eV
     psi = 0.431*[#   3]+0.431*[#   4]+
    |psi|^2 = 0.862
     e =     4.74764 eV
     psi = 0.431*[#   3]+0.431*[#   4]+
    |psi|^2 = 0.862
     e =     6.87897 eV
     psi = 
    |psi|^2 = 0.000

 k =   0.0000000000  0.0000000000  2.6458834287
     e =    -7.86697 eV
     psi = 0.495*[#   6]+0.495*[#   7]+0.005*[#   3]+0.005*[#   4]+
    |psi|^2 = 0.999
     e =    -7.86697 eV
     psi = 0.495*[#   6]+0.495*[#   7]+0.005*[#   3]+0.005*[#   4]+
    |psi|^2 = 0.999
     e =    -6.02549 eV
     psi = 1.000*[#   9]+
    |psi|^2 = 1.000
     e =    -6.02476 eV
     psi = 1.000*[#   8]+
    |psi|^2 = 1.000
     e =    -5.54909 eV
     psi = 0.910*[#   5]+0.087*[#   1]+
    |psi|^2 = 0.997
     e =    -3.21941 eV
     psi = 0.574*[#   2]+0.371*[#   1]+0.040*[#   5]+
    |psi|^2 = 0.985
     e =     3.01539 eV
     psi = 0.451*[#   3]+0.451*[#   4]+0.004*[#   6]+0.004*[#   7]+
    |psi|^2 = 0.910
     e =     3.01539 eV
     psi = 0.451*[#   3]+0.451*[#   4]+0.004*[#   6]+0.004*[#   7]+
    |psi|^2 = 0.910
     e =     4.33543 eV
     psi = 0.057*[#   2]+0.024*[#   1]+
    |psi|^2 = 0.082
     e =     5.27931 eV
     psi = 
    |psi|^2 = 0.000

 k =   0.0000000000  0.0000000000  3.1750601145
     e =    -7.47285 eV
     psi = 0.843*[#   5]+0.077*[#   2]+0.073*[#   1]+
    |psi|^2 = 0.993
     e =    -6.88494 eV
     psi = 0.483*[#   6]+0.483*[#   7]+0.016*[#   3]+0.016*[#   4]+
    |psi|^2 = 0.997
     e =    -6.88494 eV
     psi = 0.483*[#   6]+0.483*[#   7]+0.016*[#   3]+0.016*[#   4]+
    |psi|^2 = 0.997
     e =    -6.27369 eV
     psi = 0.999*[#   9]+
    |psi|^2 = 0.999
     e =    -6.27294 eV
     psi = 0.999*[#   8]+
    |psi|^2 = 0.999
     e =    -5.44088 eV
     psi = 0.502*[#   1]+0.344*[#   2]+0.151*[#   5]+
    |psi|^2 = 0.998
     e =     1.04328 eV
     psi = 0.478*[#   3]+0.478*[#   4]+0.015*[#   6]+0.015*[#   7]+
    |psi|^2 = 0.987
     e =     1.04328 eV
     psi = 0.478*[#   3]+0.478*[#   4]+0.015*[#   6]+0.015*[#   7]+
    |psi|^2 = 0.987
     e =     2.48235 eV
     psi = 0.175*[#   2]+0.102*[#   1]+
    |psi|^2 = 0.277
     e =     3.43972 eV
     psi = 
    |psi|^2 = 0.000

 k =   0.0000000000  0.0000000000  3.7042368002
     e =    -9.68360 eV
     psi = 0.736*[#   5]+0.215*[#   1]+0.047*[#   2]+
    |psi|^2 = 0.998
     e =    -6.51078 eV
     psi = 0.999*[#   8]+
    |psi|^2 = 0.999
     e =    -6.51068 eV
     psi = 0.999*[#   9]+
    |psi|^2 = 0.999
     e =    -6.15064 eV
     psi = 0.547*[#   1]+0.261*[#   5]+0.192*[#   2]+
    |psi|^2 = 1.000
     e =    -5.60182 eV
     psi = 0.481*[#   6]+0.481*[#   7]+0.017*[#   3]+0.017*[#   4]+
    |psi|^2 = 0.996
     e =    -5.60182 eV
     psi = 0.481*[#   6]+0.481*[#   7]+0.017*[#   3]+0.017*[#   4]+
    |psi|^2 = 0.996
     e =    -0.45392 eV
     psi = 0.473*[#   3]+0.473*[#   4]+0.018*[#   6]+0.018*[#   7]+
    |psi|^2 = 0.983
     e =    -0.45392 eV
     psi = 0.473*[#   3]+0.473*[#   4]+0.018*[#   6]+0.018*[#   7]+
    |psi|^2 = 0.983
     e =     1.37945 eV
     psi = 0.265*[#   2]+0.080*[#   1]+
    |psi|^2 = 0.346
     e =     2.33602 eV
     psi = 
    |psi|^2 = 0.000

Lowdin Charges: 

     Atom #   1: total charge =  10.9810, s =  1.0048, p =  0.4059, d =  9.5703, 
     Spilling Parameter:   0.0017
