
     Program POST-PROC v.3.2    starts ...
     Today is 16Jan2007 at 15:21:49 

     nbndx  =    10  nbnd   =    10  natomwfc =     9  npwx   =    4056
     nelec  =  11.00  nkb   =    18  ngl    =    4885

     negative rho (up, down):  0.100E-02 0.000E+00

     Gaussian broadening (read from file): ngauss,degauss=   0    0.010000


     Calling projwave .... 

Projection on atomic states:

     state #  1: atom   1 (Au ), wfc  1 (l=0 m= 1)
     state #  2: atom   1 (Au ), wfc  2 (l=1 m= 1)
     state #  3: atom   1 (Au ), wfc  2 (l=1 m= 2)
     state #  4: atom   1 (Au ), wfc  2 (l=1 m= 3)
     state #  5: atom   1 (Au ), wfc  3 (l=2 m= 1)
     state #  6: atom   1 (Au ), wfc  3 (l=2 m= 2)
     state #  7: atom   1 (Au ), wfc  3 (l=2 m= 3)
     state #  8: atom   1 (Au ), wfc  3 (l=2 m= 4)
     state #  9: atom   1 (Au ), wfc  3 (l=2 m= 5)

 k =  -0.5000000000 -0.5000000000 -2.1167067430
     e =    -8.22457 eV
     psi = 0.592*[#  6]+0.408*[#  7]+
    |psi|^2 = 0.999
     e =    -8.22457 eV
     psi = 0.592*[#  7]+0.408*[#  6]+
    |psi|^2 = 0.999
     e =    -5.91983 eV
     psi = 1.000*[#  8]+
    |psi|^2 = 1.000
     e =    -5.91861 eV
     psi = 1.000*[#  9]+
    |psi|^2 = 1.000
     e =    -5.12323 eV
     psi = 0.827*[#  5]+0.173*[#  1]+
    |psi|^2 = 1.000
     e =    -0.15124 eV
     psi = 0.988*[#  2]+
    |psi|^2 = 0.988
     e =     2.29038 eV
     psi = 0.792*[#  1]+0.168*[#  5]+
    |psi|^2 = 0.959
     e =     4.72434 eV
     psi = 0.661*[#  3]+0.196*[#  4]+
    |psi|^2 = 0.857
     e =     4.72434 eV
     psi = 0.661*[#  4]+0.196*[#  3]+
    |psi|^2 = 0.857
     e =     6.65929 eV
     psi = 
    |psi|^2 = 0.000

 k =   0.0000000000 -0.5000000000 -2.1167067430
     e =    -8.22425 eV
     psi = 0.999*[#  7]+
    |psi|^2 = 0.999
     e =    -8.22340 eV
     psi = 0.999*[#  6]+
    |psi|^2 = 0.999
     e =    -5.91802 eV
     psi = 1.000*[#  8]+
    |psi|^2 = 1.000
     e =    -5.91756 eV
     psi = 1.000*[#  9]+
    |psi|^2 = 1.000
     e =    -5.12162 eV
     psi = 0.827*[#  5]+0.173*[#  1]+
    |psi|^2 = 1.000
     e =    -0.15136 eV
     psi = 0.988*[#  2]+
    |psi|^2 = 0.988
     e =     2.29054 eV
     psi = 0.791*[#  1]+0.168*[#  5]+
    |psi|^2 = 0.959
     e =     4.72089 eV
     psi = 0.855*[#  4]+
    |psi|^2 = 0.855
     e =     4.75012 eV
     psi = 0.863*[#  3]+
    |psi|^2 = 0.863
     e =     6.59405 eV
     psi = 
    |psi|^2 = 0.000

 k =  -0.5000000000  0.0000000000 -2.1167067430
     e =    -8.22425 eV
     psi = 0.999*[#  6]+
    |psi|^2 = 0.999
     e =    -8.22340 eV
     psi = 0.999*[#  7]+
    |psi|^2 = 0.999
     e =    -5.91802 eV
     psi = 1.000*[#  8]+
    |psi|^2 = 1.000
     e =    -5.91756 eV
     psi = 1.000*[#  9]+
    |psi|^2 = 1.000
     e =    -5.12162 eV
     psi = 0.827*[#  5]+0.173*[#  1]+
    |psi|^2 = 1.000
     e =    -0.15136 eV
     psi = 0.988*[#  2]+
    |psi|^2 = 0.988
     e =     2.29054 eV
     psi = 0.791*[#  1]+0.168*[#  5]+
    |psi|^2 = 0.959
     e =     4.72089 eV
     psi = 0.855*[#  3]+
    |psi|^2 = 0.855
     e =     4.75012 eV
     psi = 0.863*[#  4]+
    |psi|^2 = 0.863
     e =     6.59405 eV
     psi = 
    |psi|^2 = 0.000

 k =   0.0000000000  0.0000000000 -2.1167067430
     e =    -8.22296 eV
     psi = 0.809*[#  7]+0.190*[#  6]+
    |psi|^2 = 0.999
     e =    -8.22296 eV
     psi = 0.809*[#  6]+0.190*[#  7]+
    |psi|^2 = 0.999
     e =    -5.91762 eV
     psi = 1.000*[#  9]+
    |psi|^2 = 1.000
     e =    -5.91704 eV
     psi = 1.000*[#  8]+
    |psi|^2 = 1.000
     e =    -5.12102 eV
     psi = 0.827*[#  5]+0.173*[#  1]+
    |psi|^2 = 1.000
     e =    -0.15149 eV
     psi = 0.988*[#  2]+
    |psi|^2 = 0.988
     e =     2.28994 eV
     psi = 0.791*[#  1]+0.168*[#  5]+
    |psi|^2 = 0.958
     e =     4.74772 eV
     psi = 0.466*[#  3]+0.396*[#  4]+
    |psi|^2 = 0.862
     e =     4.74772 eV
     psi = 0.466*[#  4]+0.396*[#  3]+
    |psi|^2 = 0.862
     e =     6.87900 eV
     psi = 
    |psi|^2 = 0.000

 k =  -0.5000000000 -0.5000000000 -1.5875300572
     e =    -7.86588 eV
     psi = 0.654*[#  6]+0.336*[#  7]+0.006*[#  3]+0.003*[#  4]+
    |psi|^2 = 0.999
     e =    -7.86588 eV
     psi = 0.654*[#  7]+0.336*[#  6]+0.006*[#  4]+0.003*[#  3]+
    |psi|^2 = 0.999
     e =    -6.02419 eV
     psi = 1.000*[#  8]+
    |psi|^2 = 1.000
     e =    -6.02381 eV
     psi = 1.000*[#  9]+
    |psi|^2 = 1.000
     e =    -5.54836 eV
     psi = 0.910*[#  5]+0.087*[#  1]+
    |psi|^2 = 0.997
     e =    -3.21896 eV
     psi = 0.573*[#  2]+0.371*[#  1]+0.041*[#  5]+
    |psi|^2 = 0.985
     e =     2.96016 eV
     psi = 0.578*[#  4]+0.315*[#  3]+0.005*[#  7]+0.003*[#  6]+
    |psi|^2 = 0.901
     e =     2.96016 eV
     psi = 0.578*[#  3]+0.315*[#  4]+0.005*[#  6]+0.003*[#  7]+
    |psi|^2 = 0.901
     e =     4.95935 eV
     psi = 
    |psi|^2 = 0.000
     e =     5.16605 eV
     psi = 0.081*[#  2]+0.031*[#  1]+
    |psi|^2 = 0.112

 k =   0.0000000000 -0.5000000000 -1.5875300572
     e =    -7.86664 eV
     psi = 0.989*[#  6]+0.010*[#  3]+
    |psi|^2 = 0.999
     e =    -7.86624 eV
     psi = 0.989*[#  7]+0.010*[#  4]+
    |psi|^2 = 0.999
     e =    -6.02489 eV
     psi = 1.000*[#  8]+
    |psi|^2 = 1.000
     e =    -6.02393 eV
     psi = 1.000*[#  9]+
    |psi|^2 = 1.000
     e =    -5.54878 eV
     psi = 0.910*[#  5]+0.087*[#  1]+
    |psi|^2 = 0.997
     e =    -3.21910 eV
     psi = 0.574*[#  2]+0.371*[#  1]+0.040*[#  5]+
    |psi|^2 = 0.985
     e =     2.94929 eV
     psi = 0.887*[#  4]+0.008*[#  7]+
    |psi|^2 = 0.895
     e =     3.02181 eV
     psi = 0.903*[#  3]+0.008*[#  6]+
    |psi|^2 = 0.912
     e =     4.66409 eV
     psi = 0.062*[#  2]+0.026*[#  1]+
    |psi|^2 = 0.088
     e =     5.16816 eV
     psi = 0.025*[#  4]+
    |psi|^2 = 0.026

 k =  -0.5000000000  0.0000000000 -1.5875300572
     e =    -7.86664 eV
     psi = 0.989*[#  7]+0.010*[#  4]+
    |psi|^2 = 0.999
     e =    -7.86624 eV
     psi = 0.989*[#  6]+0.010*[#  3]+
    |psi|^2 = 0.999
     e =    -6.02489 eV
     psi = 1.000*[#  8]+
    |psi|^2 = 1.000
     e =    -6.02393 eV
     psi = 1.000*[#  9]+
    |psi|^2 = 1.000
     e =    -5.54878 eV
     psi = 0.910*[#  5]+0.087*[#  1]+
    |psi|^2 = 0.997
     e =    -3.21910 eV
     psi = 0.574*[#  2]+0.371*[#  1]+0.040*[#  5]+
    |psi|^2 = 0.985
     e =     2.94929 eV
     psi = 0.887*[#  3]+0.008*[#  6]+
    |psi|^2 = 0.895
     e =     3.02181 eV
     psi = 0.903*[#  4]+0.008*[#  7]+
    |psi|^2 = 0.912
     e =     4.66409 eV
     psi = 0.062*[#  2]+0.026*[#  1]+
    |psi|^2 = 0.088
     e =     5.16816 eV
     psi = 0.025*[#  3]+
    |psi|^2 = 0.026

 k =   0.0000000000  0.0000000000 -1.5875300572
     e =    -7.86656 eV
     psi = 0.881*[#  7]+0.108*[#  6]+0.008*[#  4]+0.001*[#  3]+
    |psi|^2 = 0.999
     e =    -7.86656 eV
     psi = 0.881*[#  6]+0.108*[#  7]+0.008*[#  3]+0.001*[#  4]+
    |psi|^2 = 0.999
     e =    -6.02506 eV
     psi = 1.000*[#  9]+
    |psi|^2 = 1.000
     e =    -6.02433 eV
     psi = 1.000*[#  8]+
    |psi|^2 = 1.000
     e =    -5.54867 eV
     psi = 0.910*[#  5]+0.087*[#  1]+
    |psi|^2 = 0.997
     e =    -3.21919 eV
     psi = 0.574*[#  2]+0.371*[#  1]+0.040*[#  5]+
    |psi|^2 = 0.985
     e =     3.01547 eV
     psi = 0.587*[#  4]+0.315*[#  3]+0.005*[#  7]+0.003*[#  6]+
    |psi|^2 = 0.910
     e =     3.01547 eV
     psi = 0.587*[#  3]+0.315*[#  4]+0.005*[#  6]+0.003*[#  7]+
    |psi|^2 = 0.910
     e =     4.33542 eV
     psi = 0.057*[#  2]+0.024*[#  1]+
    |psi|^2 = 0.082
     e =     5.27929 eV
     psi = 
    |psi|^2 = 0.000

 k =  -0.5000000000 -0.5000000000 -1.0583533715
     e =    -7.47290 eV
     psi = 0.843*[#  5]+0.077*[#  2]+0.073*[#  1]+
    |psi|^2 = 0.993
     e =    -6.88562 eV
     psi = 0.547*[#  7]+0.419*[#  6]+0.018*[#  4]+0.014*[#  3]+
    |psi|^2 = 0.997
     e =    -6.88562 eV
     psi = 0.547*[#  6]+0.419*[#  7]+0.018*[#  3]+0.014*[#  4]+
    |psi|^2 = 0.997
     e =    -6.27412 eV
     psi = 0.999*[#  8]+
    |psi|^2 = 0.999
     e =    -6.27308 eV
     psi = 0.999*[#  9]+
    |psi|^2 = 0.999
     e =    -5.44061 eV
     psi = 0.503*[#  1]+0.344*[#  2]+0.151*[#  5]+
    |psi|^2 = 0.998
     e =     0.99333 eV
     psi = 0.560*[#  3]+0.396*[#  4]+0.018*[#  6]+0.013*[#  7]+
    |psi|^2 = 0.986
     e =     0.99333 eV
     psi = 0.560*[#  4]+0.396*[#  3]+0.018*[#  7]+0.013*[#  6]+
    |psi|^2 = 0.986
     e =     3.09648 eV
     psi = 
    |psi|^2 = 0.000
     e =     3.35650 eV
     psi = 0.312*[#  2]+0.180*[#  1]+
    |psi|^2 = 0.492

 k =   0.0000000000 -0.5000000000 -1.0583533715
     e =    -7.47223 eV
     psi = 0.843*[#  5]+0.077*[#  2]+0.073*[#  1]+
    |psi|^2 = 0.993
     e =    -6.88489 eV
     psi = 0.966*[#  7]+0.031*[#  4]+
    |psi|^2 = 0.997
     e =    -6.88384 eV
     psi = 0.966*[#  6]+0.031*[#  3]+
    |psi|^2 = 0.997
     e =    -6.27298 eV
     psi = 0.999*[#  8]+
    |psi|^2 = 0.999
     e =    -6.27231 eV
     psi = 0.999*[#  9]+
    |psi|^2 = 0.999
     e =    -5.44054 eV
     psi = 0.502*[#  1]+0.344*[#  2]+0.152*[#  5]+
    |psi|^2 = 0.998
     e =     0.98390 eV
     psi = 0.952*[#  4]+0.030*[#  7]+
    |psi|^2 = 0.983
     e =     1.04906 eV
     psi = 0.956*[#  3]+0.031*[#  6]+
    |psi|^2 = 0.987
     e =     2.82331 eV
     psi = 0.203*[#  2]+0.118*[#  1]+
    |psi|^2 = 0.321
     e =     3.27499 eV
     psi = 0.006*[#  4]+0.001*[#  7]+
    |psi|^2 = 0.008

 k =  -0.5000000000  0.0000000000 -1.0583533715
     e =    -7.47223 eV
     psi = 0.843*[#  5]+0.077*[#  2]+0.073*[#  1]+
    |psi|^2 = 0.993
     e =    -6.88489 eV
     psi = 0.966*[#  6]+0.031*[#  3]+
    |psi|^2 = 0.997
     e =    -6.88384 eV
     psi = 0.966*[#  7]+0.031*[#  4]+
    |psi|^2 = 0.997
     e =    -6.27298 eV
     psi = 0.999*[#  8]+
    |psi|^2 = 0.999
     e =    -6.27231 eV
     psi = 0.999*[#  9]+
    |psi|^2 = 0.999
     e =    -5.44054 eV
     psi = 0.502*[#  1]+0.344*[#  2]+0.152*[#  5]+
    |psi|^2 = 0.998
     e =     0.98390 eV
     psi = 0.952*[#  3]+0.030*[#  6]+
    |psi|^2 = 0.983
     e =     1.04906 eV
     psi = 0.956*[#  4]+0.031*[#  7]+
    |psi|^2 = 0.987
     e =     2.82331 eV
     psi = 0.203*[#  2]+0.118*[#  1]+
    |psi|^2 = 0.321
     e =     3.27499 eV
     psi = 0.006*[#  3]+0.001*[#  6]+
    |psi|^2 = 0.008

 k =   0.0000000000  0.0000000000 -1.0583533715
     e =    -7.47242 eV
     psi = 0.843*[#  5]+0.077*[#  2]+0.073*[#  1]+
    |psi|^2 = 0.993
     e =    -6.88452 eV
     psi = 0.743*[#  6]+0.222*[#  7]+0.024*[#  3]+0.007*[#  4]+
    |psi|^2 = 0.997
     e =    -6.88452 eV
     psi = 0.743*[#  7]+0.222*[#  6]+0.024*[#  4]+0.007*[#  3]+
    |psi|^2 = 0.997
     e =    -6.27327 eV
     psi = 0.999*[#  9]+
    |psi|^2 = 0.999
     e =    -6.27252 eV
     psi = 0.999*[#  8]+
    |psi|^2 = 0.999
     e =    -5.44067 eV
     psi = 0.502*[#  1]+0.344*[#  2]+0.152*[#  5]+
    |psi|^2 = 0.998
     e =     1.04336 eV
     psi = 0.806*[#  3]+0.150*[#  4]+0.026*[#  6]+0.005*[#  7]+
    |psi|^2 = 0.987
     e =     1.04336 eV
     psi = 0.806*[#  4]+0.150*[#  3]+0.026*[#  7]+0.005*[#  6]+
    |psi|^2 = 0.987
     e =     2.48234 eV
     psi = 0.175*[#  2]+0.102*[#  1]+
    |psi|^2 = 0.277
     e =     3.43971 eV
     psi = 
    |psi|^2 = 0.000

 k =  -0.5000000000 -0.5000000000 -0.5291766857
     e =    -9.68353 eV
     psi = 0.736*[#  5]+0.215*[#  1]+0.047*[#  2]+
    |psi|^2 = 0.998
     e =    -6.51100 eV
     psi = 0.999*[#  8]+
    |psi|^2 = 0.999
     e =    -6.51092 eV
     psi = 0.999*[#  9]+
    |psi|^2 = 0.999
     e =    -6.15028 eV
     psi = 0.547*[#  1]+0.261*[#  5]+0.192*[#  2]+
    |psi|^2 = 1.000
     e =    -5.60195 eV
     psi = 0.664*[#  7]+0.298*[#  6]+0.024*[#  4]+0.011*[#  3]+
    |psi|^2 = 0.996
     e =    -5.60195 eV
     psi = 0.664*[#  6]+0.298*[#  7]+0.024*[#  3]+0.011*[#  4]+
    |psi|^2 = 0.996
     e =    -0.48701 eV
     psi = 0.648*[#  3]+0.304*[#  4]+0.024*[#  6]+0.011*[#  7]+
    |psi|^2 = 0.987
     e =    -0.48701 eV
     psi = 0.648*[#  4]+0.304*[#  3]+0.024*[#  7]+0.011*[#  6]+
    |psi|^2 = 0.987
     e =     1.97867 eV
     psi = 
    |psi|^2 = 0.000
     e =     2.29037 eV
     psi = 0.499*[#  2]+0.147*[#  1]+0.001*[#  5]+
    |psi|^2 = 0.647

 k =   0.0000000000 -0.5000000000 -0.5291766857
     e =    -9.68311 eV
     psi = 0.736*[#  5]+0.215*[#  1]+0.047*[#  2]+
    |psi|^2 = 0.998
     e =    -6.51046 eV
     psi = 0.999*[#  8]+
    |psi|^2 = 0.999
     e =    -6.50980 eV
     psi = 0.999*[#  9]+
    |psi|^2 = 0.999
     e =    -6.15026 eV
     psi = 0.547*[#  1]+0.261*[#  5]+0.192*[#  2]+
    |psi|^2 = 1.000
     e =    -5.60133 eV
     psi = 0.962*[#  6]+0.034*[#  3]+
    |psi|^2 = 0.996
     e =    -5.60116 eV
     psi = 0.962*[#  7]+0.034*[#  4]+
    |psi|^2 = 0.996
     e =    -0.49253 eV
     psi = 0.950*[#  4]+0.036*[#  7]+
    |psi|^2 = 0.986
     e =    -0.45028 eV
     psi = 0.946*[#  3]+0.036*[#  6]+
    |psi|^2 = 0.982
     e =     1.72991 eV
     psi = 0.311*[#  2]+0.093*[#  1]+
    |psi|^2 = 0.405
     e =     2.07742 eV
     psi = 
    |psi|^2 = 0.001

 k =  -0.5000000000  0.0000000000 -0.5291766857
     e =    -9.68311 eV
     psi = 0.736*[#  5]+0.215*[#  1]+0.047*[#  2]+
    |psi|^2 = 0.998
     e =    -6.51046 eV
     psi = 0.999*[#  8]+
    |psi|^2 = 0.999
     e =    -6.50980 eV
     psi = 0.999*[#  9]+
    |psi|^2 = 0.999
     e =    -6.15026 eV
     psi = 0.547*[#  1]+0.261*[#  5]+0.192*[#  2]+
    |psi|^2 = 1.000
     e =    -5.60133 eV
     psi = 0.962*[#  7]+0.034*[#  4]+
    |psi|^2 = 0.996
     e =    -5.60116 eV
     psi = 0.962*[#  6]+0.034*[#  3]+
    |psi|^2 = 0.996
     e =    -0.49253 eV
     psi = 0.950*[#  3]+0.036*[#  6]+
    |psi|^2 = 0.986
     e =    -0.45028 eV
     psi = 0.946*[#  4]+0.036*[#  7]+
    |psi|^2 = 0.982
     e =     1.72991 eV
     psi = 0.311*[#  2]+0.093*[#  1]+
    |psi|^2 = 0.405
     e =     2.07742 eV
     psi = 
    |psi|^2 = 0.001

 k =   0.0000000000  0.0000000000 -0.5291766857
     e =    -9.68321 eV
     psi = 0.736*[#  5]+0.215*[#  1]+0.047*[#  2]+
    |psi|^2 = 0.998
     e =    -6.51037 eV
     psi = 0.999*[#  8]+
    |psi|^2 = 0.999
     e =    -6.51027 eV
     psi = 0.999*[#  9]+
    |psi|^2 = 0.999
     e =    -6.15041 eV
     psi = 0.547*[#  1]+0.261*[#  5]+0.192*[#  2]+
    |psi|^2 = 1.000
     e =    -5.60137 eV
     psi = 0.798*[#  6]+0.164*[#  7]+0.028*[#  3]+0.006*[#  4]+
    |psi|^2 = 0.996
     e =    -5.60137 eV
     psi = 0.798*[#  7]+0.164*[#  6]+0.028*[#  4]+0.006*[#  3]+
    |psi|^2 = 0.996
     e =    -0.45383 eV
     psi = 0.654*[#  3]+0.292*[#  4]+0.025*[#  6]+0.011*[#  7]+
    |psi|^2 = 0.983
     e =    -0.45383 eV
     psi = 0.654*[#  4]+0.292*[#  3]+0.025*[#  7]+0.011*[#  6]+
    |psi|^2 = 0.983
     e =     1.37944 eV
     psi = 0.265*[#  2]+0.080*[#  1]+
    |psi|^2 = 0.346
     e =     2.33601 eV
     psi = 
    |psi|^2 = 0.000

 k =  -0.5000000000 -0.5000000000  0.0000000000
     e =   -10.49701 eV
     psi = 0.726*[#  5]+0.270*[#  1]+
    |psi|^2 = 0.996
     e =    -6.60534 eV
     psi = 0.999*[#  9]+
    |psi|^2 = 0.999
     e =    -6.60514 eV
     psi = 0.999*[#  8]+
    |psi|^2 = 0.999
     e =    -6.37816 eV
     psi = 0.729*[#  1]+0.271*[#  5]+
    |psi|^2 = 1.000
     e =    -4.86338 eV
     psi = 0.853*[#  7]+0.147*[#  6]+
    |psi|^2 = 1.000
     e =    -4.86338 eV
     psi = 0.853*[#  6]+0.147*[#  7]+
    |psi|^2 = 1.000
     e =    -1.18018 eV
     psi = 0.922*[#  4]+0.052*[#  3]+
    |psi|^2 = 0.974
     e =    -1.18018 eV
     psi = 0.922*[#  3]+0.052*[#  4]+
    |psi|^2 = 0.974
     e =     1.60607 eV
     psi = 
    |psi|^2 = 0.000
     e =     1.93671 eV
     psi = 0.001*[#  5]+
    |psi|^2 = 0.002

 k =   0.0000000000 -0.5000000000  0.0000000000
     e =   -10.49717 eV
     psi = 0.726*[#  5]+0.270*[#  1]+
    |psi|^2 = 0.996
     e =    -6.60643 eV
     psi = 0.999*[#  9]+
    |psi|^2 = 0.999
     e =    -6.60589 eV
     psi = 0.999*[#  8]+
    |psi|^2 = 0.999
     e =    -6.37838 eV
     psi = 0.729*[#  1]+0.271*[#  5]+
    |psi|^2 = 1.000
     e =    -4.86547 eV
     psi = 1.000*[#  6]+
    |psi|^2 = 1.000
     e =    -4.86504 eV
     psi = 1.000*[#  7]+
    |psi|^2 = 1.000
     e =    -1.18388 eV
     psi = 0.974*[#  4]+
    |psi|^2 = 0.974
     e =    -1.15350 eV
     psi = 0.967*[#  3]+
    |psi|^2 = 0.967
     e =     1.36633 eV
     psi = 
    |psi|^2 = 0.001
     e =     1.65951 eV
     psi = 0.001*[#  4]+
    |psi|^2 = 0.001

 k =  -0.5000000000  0.0000000000  0.0000000000
     e =   -10.49717 eV
     psi = 0.726*[#  5]+0.270*[#  1]+
    |psi|^2 = 0.996
     e =    -6.60643 eV
     psi = 0.999*[#  9]+
    |psi|^2 = 0.999
     e =    -6.60589 eV
     psi = 0.999*[#  8]+
    |psi|^2 = 0.999
     e =    -6.37838 eV
     psi = 0.729*[#  1]+0.271*[#  5]+
    |psi|^2 = 1.000
     e =    -4.86547 eV
     psi = 1.000*[#  7]+
    |psi|^2 = 1.000
     e =    -4.86504 eV
     psi = 1.000*[#  6]+
    |psi|^2 = 1.000
     e =    -1.18388 eV
     psi = 0.974*[#  3]+
    |psi|^2 = 0.974
     e =    -1.15350 eV
     psi = 0.967*[#  4]+
    |psi|^2 = 0.967
     e =     1.36633 eV
     psi = 
    |psi|^2 = 0.001
     e =     1.65951 eV
     psi = 0.001*[#  3]+
    |psi|^2 = 0.001

 k =   0.0000000000  0.0000000000  0.0000000000
     e =   -10.49747 eV
     psi = 0.726*[#  5]+0.270*[#  1]+
    |psi|^2 = 0.996
     e =    -6.60701 eV
     psi = 0.999*[#  8]+
    |psi|^2 = 0.999
     e =    -6.60673 eV
     psi = 0.999*[#  9]+
    |psi|^2 = 0.999
     e =    -6.37868 eV
     psi = 0.729*[#  1]+0.271*[#  5]+
    |psi|^2 = 1.000
     e =    -4.86617 eV
     psi = 0.754*[#  6]+0.246*[#  7]+
    |psi|^2 = 1.000
     e =    -4.86617 eV
     psi = 0.754*[#  7]+0.246*[#  6]+
    |psi|^2 = 1.000
     e =    -1.15600 eV
     psi = 0.788*[#  4]+0.179*[#  3]+
    |psi|^2 = 0.968
     e =    -1.15600 eV
     psi = 0.788*[#  3]+0.179*[#  4]+
    |psi|^2 = 0.968
     e =     1.01252 eV
     psi = 
    |psi|^2 = 0.001
     e =     1.96810 eV
     psi = 
    |psi|^2 = 0.000

 k =  -0.5000000000 -0.5000000000  0.5291766857
     e =    -9.68353 eV
     psi = 0.736*[#  5]+0.215*[#  1]+0.047*[#  2]+
    |psi|^2 = 0.998
     e =    -6.51100 eV
     psi = 0.999*[#  8]+
    |psi|^2 = 0.999
     e =    -6.51092 eV
     psi = 0.999*[#  9]+
    |psi|^2 = 0.999
     e =    -6.15028 eV
     psi = 0.547*[#  1]+0.261*[#  5]+0.192*[#  2]+
    |psi|^2 = 1.000
     e =    -5.60195 eV
     psi = 0.659*[#  6]+0.303*[#  7]+0.024*[#  3]+0.011*[#  4]+
    |psi|^2 = 0.996
     e =    -5.60195 eV
     psi = 0.659*[#  7]+0.303*[#  6]+0.024*[#  4]+0.011*[#  3]+
    |psi|^2 = 0.996
     e =    -0.48701 eV
     psi = 0.568*[#  4]+0.384*[#  3]+0.021*[#  7]+0.014*[#  6]+
    |psi|^2 = 0.987
     e =    -0.48701 eV
     psi = 0.568*[#  3]+0.384*[#  4]+0.021*[#  6]+0.014*[#  7]+
    |psi|^2 = 0.987
     e =     1.97867 eV
     psi = 
    |psi|^2 = 0.000
     e =     2.29037 eV
     psi = 0.499*[#  2]+0.147*[#  1]+0.001*[#  5]+
    |psi|^2 = 0.647

 k =   0.0000000000 -0.5000000000  0.5291766857
     e =    -9.68311 eV
     psi = 0.736*[#  5]+0.215*[#  1]+0.047*[#  2]+
    |psi|^2 = 0.998
     e =    -6.51046 eV
     psi = 0.999*[#  8]+
    |psi|^2 = 0.999
     e =    -6.50980 eV
     psi = 0.999*[#  9]+
    |psi|^2 = 0.999
     e =    -6.15026 eV
     psi = 0.547*[#  1]+0.261*[#  5]+0.192*[#  2]+
    |psi|^2 = 1.000
     e =    -5.60133 eV
     psi = 0.962*[#  6]+0.034*[#  3]+
    |psi|^2 = 0.996
     e =    -5.60116 eV
     psi = 0.962*[#  7]+0.034*[#  4]+
    |psi|^2 = 0.996
     e =    -0.49253 eV
     psi = 0.950*[#  4]+0.036*[#  7]+
    |psi|^2 = 0.986
     e =    -0.45028 eV
     psi = 0.946*[#  3]+0.036*[#  6]+
    |psi|^2 = 0.982
     e =     1.72991 eV
     psi = 0.311*[#  2]+0.093*[#  1]+
    |psi|^2 = 0.405
     e =     2.07742 eV
     psi = 
    |psi|^2 = 0.001

 k =  -0.5000000000  0.0000000000  0.5291766857
     e =    -9.68311 eV
     psi = 0.736*[#  5]+0.215*[#  1]+0.047*[#  2]+
    |psi|^2 = 0.998
     e =    -6.51046 eV
     psi = 0.999*[#  8]+
    |psi|^2 = 0.999
     e =    -6.50980 eV
     psi = 0.999*[#  9]+
    |psi|^2 = 0.999
     e =    -6.15026 eV
     psi = 0.547*[#  1]+0.261*[#  5]+0.192*[#  2]+
    |psi|^2 = 1.000
     e =    -5.60133 eV
     psi = 0.962*[#  7]+0.034*[#  4]+
    |psi|^2 = 0.996
     e =    -5.60116 eV
     psi = 0.962*[#  6]+0.034*[#  3]+
    |psi|^2 = 0.996
     e =    -0.49253 eV
     psi = 0.950*[#  3]+0.036*[#  6]+
    |psi|^2 = 0.986
     e =    -0.45028 eV
     psi = 0.946*[#  4]+0.036*[#  7]+
    |psi|^2 = 0.982
     e =     1.72991 eV
     psi = 0.311*[#  2]+0.093*[#  1]+
    |psi|^2 = 0.405
     e =     2.07742 eV
     psi = 
    |psi|^2 = 0.001

 k =   0.0000000000  0.0000000000  0.5291766857
     e =    -9.68321 eV
     psi = 0.736*[#  5]+0.215*[#  1]+0.047*[#  2]+
    |psi|^2 = 0.998
     e =    -6.51037 eV
     psi = 0.999*[#  8]+
    |psi|^2 = 0.999
     e =    -6.51027 eV
     psi = 0.999*[#  9]+
    |psi|^2 = 0.999
     e =    -6.15041 eV
     psi = 0.547*[#  1]+0.261*[#  5]+0.192*[#  2]+
    |psi|^2 = 1.000
     e =    -5.60137 eV
     psi = 0.690*[#  7]+0.272*[#  6]+0.025*[#  4]+0.010*[#  3]+
    |psi|^2 = 0.996
     e =    -5.60137 eV
     psi = 0.690*[#  6]+0.272*[#  7]+0.025*[#  3]+0.010*[#  4]+
    |psi|^2 = 0.996
     e =    -0.45383 eV
     psi = 0.837*[#  4]+0.109*[#  3]+0.032*[#  7]+0.004*[#  6]+
    |psi|^2 = 0.983
     e =    -0.45383 eV
     psi = 0.837*[#  3]+0.109*[#  4]+0.032*[#  6]+0.004*[#  7]+
    |psi|^2 = 0.983
     e =     1.37944 eV
     psi = 0.265*[#  2]+0.080*[#  1]+
    |psi|^2 = 0.346
     e =     2.33601 eV
     psi = 
    |psi|^2 = 0.000

 k =  -0.5000000000 -0.5000000000  1.0583533715
     e =    -7.47290 eV
     psi = 0.843*[#  5]+0.077*[#  2]+0.073*[#  1]+
    |psi|^2 = 0.993
     e =    -6.88562 eV
     psi = 0.874*[#  7]+0.091*[#  6]+0.028*[#  4]+0.003*[#  3]+
    |psi|^2 = 0.997
     e =    -6.88562 eV
     psi = 0.874*[#  6]+0.091*[#  7]+0.028*[#  3]+0.003*[#  4]+
    |psi|^2 = 0.997
     e =    -6.27412 eV
     psi = 0.999*[#  8]+
    |psi|^2 = 0.999
     e =    -6.27308 eV
     psi = 0.999*[#  9]+
    |psi|^2 = 0.999
     e =    -5.44061 eV
     psi = 0.503*[#  1]+0.344*[#  2]+0.151*[#  5]+
    |psi|^2 = 0.998
     e =     0.99333 eV
     psi = 0.947*[#  3]+0.030*[#  6]+0.010*[#  4]+
    |psi|^2 = 0.986
     e =     0.99333 eV
     psi = 0.947*[#  4]+0.030*[#  7]+0.010*[#  3]+
    |psi|^2 = 0.986
     e =     3.09648 eV
     psi = 
    |psi|^2 = 0.000
     e =     3.35650 eV
     psi = 0.312*[#  2]+0.180*[#  1]+
    |psi|^2 = 0.492

 k =   0.0000000000 -0.5000000000  1.0583533715
     e =    -7.47223 eV
     psi = 0.843*[#  5]+0.077*[#  2]+0.073*[#  1]+
    |psi|^2 = 0.993
     e =    -6.88489 eV
     psi = 0.966*[#  7]+0.031*[#  4]+
    |psi|^2 = 0.997
     e =    -6.88384 eV
     psi = 0.966*[#  6]+0.031*[#  3]+
    |psi|^2 = 0.997
     e =    -6.27298 eV
     psi = 0.999*[#  8]+
    |psi|^2 = 0.999
     e =    -6.27231 eV
     psi = 0.999*[#  9]+
    |psi|^2 = 0.999
     e =    -5.44054 eV
     psi = 0.502*[#  1]+0.344*[#  2]+0.152*[#  5]+
    |psi|^2 = 0.998
     e =     0.98390 eV
     psi = 0.952*[#  4]+0.030*[#  7]+
    |psi|^2 = 0.983
     e =     1.04906 eV
     psi = 0.956*[#  3]+0.031*[#  6]+
    |psi|^2 = 0.987
     e =     2.82331 eV
     psi = 0.203*[#  2]+0.118*[#  1]+
    |psi|^2 = 0.321
     e =     3.27499 eV
     psi = 0.006*[#  4]+0.001*[#  7]+
    |psi|^2 = 0.008

 k =  -0.5000000000  0.0000000000  1.0583533715
     e =    -7.47223 eV
     psi = 0.843*[#  5]+0.077*[#  2]+0.073*[#  1]+
    |psi|^2 = 0.993
     e =    -6.88489 eV
     psi = 0.966*[#  6]+0.031*[#  3]+
    |psi|^2 = 0.997
     e =    -6.88384 eV
     psi = 0.966*[#  7]+0.031*[#  4]+
    |psi|^2 = 0.997
     e =    -6.27298 eV
     psi = 0.999*[#  8]+
    |psi|^2 = 0.999
     e =    -6.27231 eV
     psi = 0.999*[#  9]+
    |psi|^2 = 0.999
     e =    -5.44054 eV
     psi = 0.502*[#  1]+0.344*[#  2]+0.152*[#  5]+
    |psi|^2 = 0.998
     e =     0.98390 eV
     psi = 0.952*[#  3]+0.030*[#  6]+
    |psi|^2 = 0.983
     e =     1.04906 eV
     psi = 0.956*[#  4]+0.031*[#  7]+
    |psi|^2 = 0.987
     e =     2.82331 eV
     psi = 0.203*[#  2]+0.118*[#  1]+
    |psi|^2 = 0.321
     e =     3.27499 eV
     psi = 0.006*[#  3]+0.001*[#  6]+
    |psi|^2 = 0.008

 k =   0.0000000000  0.0000000000  1.0583533715
     e =    -7.47242 eV
     psi = 0.843*[#  5]+0.077*[#  2]+0.073*[#  1]+
    |psi|^2 = 0.993
     e =    -6.88452 eV
     psi = 0.502*[#  7]+0.463*[#  6]+0.016*[#  4]+0.015*[#  3]+
    |psi|^2 = 0.997
     e =    -6.88452 eV
     psi = 0.502*[#  6]+0.463*[#  7]+0.016*[#  3]+0.015*[#  4]+
    |psi|^2 = 0.997
     e =    -6.27327 eV
     psi = 0.999*[#  9]+
    |psi|^2 = 0.999
     e =    -6.27252 eV
     psi = 0.999*[#  8]+
    |psi|^2 = 0.999
     e =    -5.44067 eV
     psi = 0.502*[#  1]+0.344*[#  2]+0.152*[#  5]+
    |psi|^2 = 0.998
     e =     1.04336 eV
     psi = 0.490*[#  4]+0.466*[#  3]+0.016*[#  7]+0.015*[#  6]+
    |psi|^2 = 0.987
     e =     1.04336 eV
     psi = 0.490*[#  3]+0.466*[#  4]+0.016*[#  6]+0.015*[#  7]+
    |psi|^2 = 0.987
     e =     2.48234 eV
     psi = 0.175*[#  2]+0.102*[#  1]+
    |psi|^2 = 0.277
     e =     3.43971 eV
     psi = 
    |psi|^2 = 0.000

 k =  -0.5000000000 -0.5000000000  1.5875300572
     e =    -7.86588 eV
     psi = 0.534*[#  6]+0.456*[#  7]+0.005*[#  3]+0.004*[#  4]+
    |psi|^2 = 0.999
     e =    -7.86588 eV
     psi = 0.534*[#  7]+0.456*[#  6]+0.005*[#  4]+0.004*[#  3]+
    |psi|^2 = 0.999
     e =    -6.02419 eV
     psi = 1.000*[#  8]+
    |psi|^2 = 1.000
     e =    -6.02381 eV
     psi = 1.000*[#  9]+
    |psi|^2 = 1.000
     e =    -5.54836 eV
     psi = 0.910*[#  5]+0.087*[#  1]+
    |psi|^2 = 0.997
     e =    -3.21896 eV
     psi = 0.573*[#  2]+0.371*[#  1]+0.041*[#  5]+
    |psi|^2 = 0.985
     e =     2.96016 eV
     psi = 0.563*[#  3]+0.330*[#  4]+0.005*[#  6]+0.003*[#  7]+
    |psi|^2 = 0.901
     e =     2.96016 eV
     psi = 0.563*[#  4]+0.330*[#  3]+0.005*[#  7]+0.003*[#  6]+
    |psi|^2 = 0.901
     e =     4.95935 eV
     psi = 
    |psi|^2 = 0.000
     e =     5.16605 eV
     psi = 0.081*[#  2]+0.031*[#  1]+
    |psi|^2 = 0.112

 k =   0.0000000000 -0.5000000000  1.5875300572
     e =    -7.86664 eV
     psi = 0.989*[#  6]+0.010*[#  3]+
    |psi|^2 = 0.999
     e =    -7.86624 eV
     psi = 0.989*[#  7]+0.010*[#  4]+
    |psi|^2 = 0.999
     e =    -6.02489 eV
     psi = 1.000*[#  8]+
    |psi|^2 = 1.000
     e =    -6.02393 eV
     psi = 1.000*[#  9]+
    |psi|^2 = 1.000
     e =    -5.54878 eV
     psi = 0.910*[#  5]+0.087*[#  1]+
    |psi|^2 = 0.997
     e =    -3.21910 eV
     psi = 0.574*[#  2]+0.371*[#  1]+0.040*[#  5]+
    |psi|^2 = 0.985
     e =     2.94929 eV
     psi = 0.887*[#  4]+0.008*[#  7]+
    |psi|^2 = 0.895
     e =     3.02181 eV
     psi = 0.903*[#  3]+0.008*[#  6]+
    |psi|^2 = 0.912
     e =     4.66409 eV
     psi = 0.062*[#  2]+0.026*[#  1]+
    |psi|^2 = 0.088
     e =     5.16816 eV
     psi = 0.025*[#  4]+
    |psi|^2 = 0.026

 k =  -0.5000000000  0.0000000000  1.5875300572
     e =    -7.86664 eV
     psi = 0.989*[#  7]+0.010*[#  4]+
    |psi|^2 = 0.999
     e =    -7.86624 eV
     psi = 0.989*[#  6]+0.010*[#  3]+
    |psi|^2 = 0.999
     e =    -6.02489 eV
     psi = 1.000*[#  8]+
    |psi|^2 = 1.000
     e =    -6.02393 eV
     psi = 1.000*[#  9]+
    |psi|^2 = 1.000
     e =    -5.54878 eV
     psi = 0.910*[#  5]+0.087*[#  1]+
    |psi|^2 = 0.997
     e =    -3.21910 eV
     psi = 0.574*[#  2]+0.371*[#  1]+0.040*[#  5]+
    |psi|^2 = 0.985
     e =     2.94929 eV
     psi = 0.887*[#  3]+0.008*[#  6]+
    |psi|^2 = 0.895
     e =     3.02181 eV
     psi = 0.903*[#  4]+0.008*[#  7]+
    |psi|^2 = 0.912
     e =     4.66409 eV
     psi = 0.062*[#  2]+0.026*[#  1]+
    |psi|^2 = 0.088
     e =     5.16816 eV
     psi = 0.025*[#  3]+
    |psi|^2 = 0.026

 k =   0.0000000000  0.0000000000  1.5875300572
     e =    -7.86656 eV
     psi = 0.811*[#  7]+0.178*[#  6]+0.008*[#  4]+0.002*[#  3]+
    |psi|^2 = 0.999
     e =    -7.86656 eV
     psi = 0.811*[#  6]+0.178*[#  7]+0.008*[#  3]+0.002*[#  4]+
    |psi|^2 = 0.999
     e =    -6.02506 eV
     psi = 1.000*[#  9]+
    |psi|^2 = 1.000
     e =    -6.02433 eV
     psi = 1.000*[#  8]+
    |psi|^2 = 1.000
     e =    -5.54867 eV
     psi = 0.910*[#  5]+0.087*[#  1]+
    |psi|^2 = 0.997
     e =    -3.21919 eV
     psi = 0.574*[#  2]+0.371*[#  1]+0.040*[#  5]+
    |psi|^2 = 0.985
     e =     3.01547 eV
     psi = 0.623*[#  3]+0.278*[#  4]+0.006*[#  6]+0.003*[#  7]+
    |psi|^2 = 0.910
     e =     3.01547 eV
     psi = 0.623*[#  4]+0.278*[#  3]+0.006*[#  7]+0.003*[#  6]+
    |psi|^2 = 0.910
     e =     4.33542 eV
     psi = 0.057*[#  2]+0.024*[#  1]+
    |psi|^2 = 0.082
     e =     5.27929 eV
     psi = 
    |psi|^2 = 0.000

Lowdin Charges: 

     Atom #   1: total charge =  10.9810, s, p, d, f =   1.0050  0.4058  9.5702
     Spilling Parameter:   0.0017
