
     Program POST-PROC v.2.1.5  starts ...
     Today is 10Oct2005 at  7:53: 4 

     Reading file gold.save ... 
     read complete

     Reading file gold.save ... 
     read complete

     nbndx  =    10  nbnd   =    10  natomwfc =     9  npwx   =   11303
     nelec  =   11.00 nkb   =     8  ngl    =    4885
  warning: negative or imaginary core charge    -0.000021    0.000000
