
     Program POST-PROC v.3.0    starts ...
     Today is 30Nov2005 at 20:29:24 

     Reading file gold.save ...      only dimensions
     read complete

     Reading file gold.save ...      all except wavefuctions
     read complete

     nbndx  =    10  nbnd   =    10  natomwfc =     9  npwx   =   11303
     nelec  =  11.00  nkb   =     8  ngl    =    4885

     Check: negative/imaginary core charge=   -0.000021    0.000000
