
     Program POST-PROC v.4.0.3  starts ...
     Today is 26Dec2008 at 12:12:28 

     Parallel version (MPI)

     Number of processors in use:       4
     R & G space division:  proc/pool =    4

     Planes per process (thick) : nr3 = 24 npp =   6 ncplane =20736
     Planes per process (smooth): nr3s= 15 npps=   4 ncplanes= 8100
 
     Proc/  planes cols     G    planes cols    G      columns  G
     Pool       (dense grid)       (smooth grid)      (wavefct grid)
       1      6   3582    50808    4   1430    12866    566     3206
       2      6   3581    50807    4   1431    12869    565     3205
       3      6   3583    50807    4   1430    12864    565     3205
       4      6   3583    50807    3   1430    12862    565     3205
     tot     24  14329   203229   15   5721    51461   2261    12821
 

     Check: negative/imaginary core charge=   -0.000009    0.000000

     negative rho (up, down):  0.241E-01 0.000E+00
