
     Program POST-PROC v.3.2    starts ...
     Today is 16Jan2007 at 15:16:56 

     nbndx  =    10  nbnd   =    10  natomwfc =     9  npwx   =   11303
     nelec  =  11.00  nkb   =     8  ngl    =    4885

     Check: negative/imaginary core charge=   -0.000021    0.000000
