
     Program POST-PROC v.2.1.5  starts ...
     Today is 17Oct2005 at 23:58:44 

     Reading file gold_US.save ... 
     read complete

     Reading file gold_US.save ... 
     read complete

     nbndx  =    10  nbnd   =    10  natomwfc =     9  npwx   =    4031
     nelec  =   11.00 nkb   =    18  ngl    =    4885
