
     Program POST-PROC v.2.1.3  starts ...
     Today is 27Jul2005 at 16:22: 4 

     Reading file gold.save ... 
     read complete

     Reading file gold.save ... 
     read complete

     nbndx  =    10  nbnd   =    10  natomwfc =     9  npwx   =    4031
     nelec  =   11.00 nkb   =     8  ngl    =    1901
  warning: negative or imaginary core charge    -0.000071    0.000000
