
     Program POST-PROC v.3.0    starts ...
     Today is 30Nov2005 at 20:32:58 

     Reading file gold_US.save ...      only dimensions
     read complete

     Reading file gold_US.save ...      all except wavefuctions
     read complete

     nbndx  =    10  nbnd   =    10  natomwfc =     9  npwx   =    4031
     nelec  =  11.00  nkb   =    18  ngl    =    4885
