
     Program POST-PROC v.3.2    starts ...
     Today is  7Jun2007 at 17:22:58 

     nbndx  =    10  nbnd   =    10  natomwfc =     9  npwx   =    4031
     nelec  =  11.00  nkb   =    18  ngl    =    4885

     negative rho (up, down):  0.100E-02 0.000E+00
