
     Program POST-PROC v.3.2cvs starts ...
     Today is 14Oct2006 at  6:21:35 

     nbndx  =    10  nbnd   =    10  natomwfc =     9  npwx   =    4056
     nelec  =  11.00  nkb   =    18  ngl    =    4885

     negative rho (up, down):  0.918E-03 0.000E+00
