
     Program PWSCF v.5.0.2 (svn rev. 10303M) starts on  1Aug2013 at 11:11:35 

     This program is part of the open-source Quantum ESPRESSO suite
     for quantum simulation of materials; please cite
         "P. Giannozzi et al., J. Phys.:Condens. Matter 21 395502 (2009);
          URL http://www.quantum-espresso.org", 
     in publications or presentations arising from this work. More details at
     http://www.quantum-espresso.org/quote

     Parallel version (MPI & OpenMP), running on       6 processor cores
     Number of MPI processes:                 6
     Threads/MPI process:                     1
     R & G space division:  proc/nbgrp/npool/nimage =       6
     Reading input from /home/ferretti/want/tests/test06/scf_AuUS.in

     Current dimensions of program PWSCF are:
     Max number of different atomic species (ntypx) = 10
     Max number of k-points (npk) =  40000
     Max angular momentum in pseudopotentials (lmaxx) =  3

     Subspace diagonalization in iterative solution of the eigenvalue problem:
     a serial algorithm will be used

 
     Parallelization info
     --------------------
     sticks:   dense  smooth     PW     G-vecs:    dense   smooth      PW
     Min        1061     530    167                15056     5332     952
     Max        1063     531    169                15057     5342     953
     Sum        6369    3181   1005                90341    32027    5717
 


     bravais-lattice index     =            8
     lattice parameter (alat)  =      20.0000  a.u.
     unit-cell volume          =    1889.7280 (a.u.)^3
     number of atoms/cell      =            1
     number of atomic types    =            1
     number of electrons       =        11.00
     number of Kohn-Sham states=           10
     kinetic-energy cutoff     =      25.0000  Ry
     charge density cutoff     =     200.0000  Ry
     convergence threshold     =      1.0E-08
     mixing beta               =       0.3000
     number of iterations used =            8  plain     mixing
     Exchange-correlation      =  SLA  PW   GGX  GGC ( 1 4 2 2 0)
     EXX-fraction              =        0.00

     celldm(1)=  20.000000  celldm(2)=   1.000000  celldm(3)=   0.236216
     celldm(4)=   0.000000  celldm(5)=   0.000000  celldm(6)=   0.000000

     crystal axes: (cart. coord. in units of alat)
               a(1) = (   1.000000   0.000000   0.000000 )  
               a(2) = (   0.000000   1.000000   0.000000 )  
               a(3) = (   0.000000   0.000000   0.236216 )  

     reciprocal axes: (cart. coord. in units 2 pi/alat)
               b(1) = (  1.000000  0.000000  0.000000 )  
               b(2) = (  0.000000  1.000000  0.000000 )  
               b(3) = (  0.000000  0.000000  4.233413 )  


     PseudoPot. # 1 for Au read from file:
     ../pseudo/Au.pw91-d-van.UPF
     MD5 check sum: dc02f59ef2ea6b62d9e9493d750aaae0
     Pseudo is Ultrasoft, Zval = 11.0
     Generated by new atomic code, or converted to UPF format
     Using radial grid of  939 points,  6 beta functions with: 
                l(1) =   0
                l(2) =   0
                l(3) =   1
                l(4) =   1
                l(5) =   2
                l(6) =   2
     Q(r) pseudized with  3 coefficients,  rinner =    1.600   1.800   1.600
                                                       1.600   1.800

     atomic species   valence    mass     pseudopotential
        Au            11.00   196.96650     Au( 1.00)

      8 Sym. Ops. (no inversion) found
          (note:  8 additional sym.ops. were found but ignored
           their fractional translations are incommensurate with FFT grid)


   Cartesian axes

     site n.     atom                  positions (alat units)
         1           Au  tau(   1) = (   0.0000000   0.0000000   0.0472432  )

     number of k points=    12  gaussian smearing, width (Ry)=  0.0100
                       cart. coord. in units 2pi/alat
        k(    1) = (   0.0000000   0.0000000   0.0881961), wk =   0.1666667
        k(    2) = (   0.0000000   0.0000000   0.2645883), wk =   0.1666667
        k(    3) = (   0.0000000   0.0000000   0.4409806), wk =   0.1666667
        k(    4) = (   0.0000000   0.0000000   0.6173728), wk =   0.1666667
        k(    5) = (   0.0000000   0.0000000   0.7937650), wk =   0.1666667
        k(    6) = (   0.0000000   0.0000000   0.9701573), wk =   0.1666667
        k(    7) = (   0.0000000   0.0000000   1.1465495), wk =   0.1666667
        k(    8) = (   0.0000000   0.0000000   1.3229417), wk =   0.1666667
        k(    9) = (   0.0000000   0.0000000   1.4993339), wk =   0.1666667
        k(   10) = (   0.0000000   0.0000000   1.6757262), wk =   0.1666667
        k(   11) = (   0.0000000   0.0000000   1.8521184), wk =   0.1666667
        k(   12) = (   0.0000000   0.0000000   2.0285106), wk =   0.1666667

     Dense  grid:    90341 G-vectors     FFT dimensions: (  96,  96,  24)

     Smooth grid:    32027 G-vectors     FFT dimensions: (  64,  64,  15)

     Largest allocated arrays     est. size (Mb)     dimensions
        Kohn-Sham Wavefunctions         0.10 Mb     (     670,   10)
        NL pseudopotentials             0.18 Mb     (     670,   18)
        Each V/rho on FFT grid          0.56 Mb     (   36864)
        Each G-vector array             0.11 Mb     (   15057)
        G-vector shells                 0.03 Mb     (    3952)
     Largest temporary arrays     est. size (Mb)     dimensions
        Auxiliary wavefunctions         0.41 Mb     (     670,   40)
        Each subspace H/S matrix        0.02 Mb     (      40,   40)
        Each <psi_i|beta_j> matrix      0.00 Mb     (      18,   10)
        Arrays for rho mixing           4.50 Mb     (   36864,    8)

     Initial potential from superposition of free atoms
     Check: negative starting charge=   -0.000378

     starting charge   10.98784, renormalised to   11.00000

     negative rho (up, down):  3.780E-04 0.000E+00
     Starting wfc are    9 randomized atomic wfcs

     total cpu time spent up to now is        1.4 secs

     per-process dynamical memory:    19.4 Mb

     Self-consistent Calculation

     iteration #  1     ecut=    25.00 Ry     beta=0.30
     Davidson diagonalization with overlap
     ethr =  1.00E-02,  avg # of iterations =  5.8

     Threshold (ethr) on eigenvalues was too large:
     Diagonalizing with lowered threshold

     Davidson diagonalization with overlap
     ethr =  2.03E-04,  avg # of iterations =  3.3

     negative rho (up, down):  3.997E-04 0.000E+00

     total cpu time spent up to now is        2.8 secs

     total energy              =     -67.30700884 Ry
     Harris-Foulkes estimate   =     -67.31441974 Ry
     estimated scf accuracy    <       0.02288644 Ry

     iteration #  2     ecut=    25.00 Ry     beta=0.30
     Davidson diagonalization with overlap
     ethr =  2.08E-04,  avg # of iterations =  1.4

     negative rho (up, down):  4.212E-04 0.000E+00

     total cpu time spent up to now is        3.5 secs

     total energy              =     -67.30817862 Ry
     Harris-Foulkes estimate   =     -67.30965886 Ry
     estimated scf accuracy    <       0.00738481 Ry

     iteration #  3     ecut=    25.00 Ry     beta=0.30
     Davidson diagonalization with overlap
     ethr =  6.71E-05,  avg # of iterations =  1.3

     negative rho (up, down):  7.144E-04 0.000E+00

     total cpu time spent up to now is        4.2 secs

     total energy              =     -67.30748019 Ry
     Harris-Foulkes estimate   =     -67.30840982 Ry
     estimated scf accuracy    <       0.00294585 Ry

     iteration #  4     ecut=    25.00 Ry     beta=0.30
     Davidson diagonalization with overlap
     ethr =  2.68E-05,  avg # of iterations =  4.4

     negative rho (up, down):  8.145E-04 0.000E+00

     total cpu time spent up to now is        5.0 secs

     total energy              =     -67.30769152 Ry
     Harris-Foulkes estimate   =     -67.30767788 Ry
     estimated scf accuracy    <       0.00001823 Ry

     iteration #  5     ecut=    25.00 Ry     beta=0.30
     Davidson diagonalization with overlap
     ethr =  1.66E-07,  avg # of iterations =  4.4

     negative rho (up, down):  8.459E-04 0.000E+00

     total cpu time spent up to now is        5.9 secs

     total energy              =     -67.30771983 Ry
     Harris-Foulkes estimate   =     -67.30772009 Ry
     estimated scf accuracy    <       0.00000698 Ry

     iteration #  6     ecut=    25.00 Ry     beta=0.30
     Davidson diagonalization with overlap
     ethr =  6.35E-08,  avg # of iterations =  1.0

     negative rho (up, down):  9.471E-04 0.000E+00

     total cpu time spent up to now is        6.6 secs

     total energy              =     -67.30772338 Ry
     Harris-Foulkes estimate   =     -67.30772007 Ry
     estimated scf accuracy    <       0.00000249 Ry

     iteration #  7     ecut=    25.00 Ry     beta=0.30
     Davidson diagonalization with overlap
     ethr =  2.27E-08,  avg # of iterations =  2.4

     negative rho (up, down):  9.427E-04 0.000E+00

     total cpu time spent up to now is        7.3 secs

     total energy              =     -67.30772280 Ry
     Harris-Foulkes estimate   =     -67.30772364 Ry
     estimated scf accuracy    <       0.00000008 Ry

     iteration #  8     ecut=    25.00 Ry     beta=0.30
     Davidson diagonalization with overlap
     ethr =  7.26E-10,  avg # of iterations =  3.9

     negative rho (up, down):  9.593E-04 0.000E+00

     total cpu time spent up to now is        8.2 secs

     total energy              =     -67.30772272 Ry
     Harris-Foulkes estimate   =     -67.30772292 Ry
     estimated scf accuracy    <       0.00000050 Ry

     iteration #  9     ecut=    25.00 Ry     beta=0.30
     Davidson diagonalization with overlap
     ethr =  7.26E-10,  avg # of iterations =  2.8

     negative rho (up, down):  9.627E-04 0.000E+00

     total cpu time spent up to now is        8.9 secs

     End of self-consistent calculation

          k = 0.0000 0.0000 0.0882 (  4015 PWs)   bands (ev):

   -10.8193  -6.8812  -6.8807  -6.5443  -5.2527  -5.2527  -1.1967  -1.1967
     1.0202   1.9788

          k = 0.0000 0.0000 0.2646 (  4011 PWs)   bands (ev):

   -10.6370  -6.8595  -6.8592  -6.4931  -5.4345  -5.4345  -1.0248  -1.0248
     1.1017   2.0606

          k = 0.0000 0.0000 0.4410 (  3987 PWs)   bands (ev):

   -10.2765  -6.8172  -6.8171  -6.3910  -5.7523  -5.7523  -0.7167  -0.7167
     1.2648   2.2241

          k = 0.0000 0.0000 0.6174 (  3987 PWs)   bands (ev):

    -9.7484  -6.7579  -6.7577  -6.2385  -6.1500  -6.1500  -0.3127  -0.3127
     1.5095   2.4694

          k = 0.0000 0.0000 0.7938 (  3963 PWs)   bands (ev):

    -9.0690  -6.6844  -6.6838  -6.5787  -6.5787  -6.0331   0.1613   0.1613
     1.8359   2.7965

          k = 0.0000 0.0000 0.9702 (  3979 PWs)   bands (ev):

    -8.2697  -7.0067  -7.0067  -6.6016  -6.6011  -5.7646   0.6933   0.6933
     2.2445   3.2053

          k = 0.0000 0.0000 1.1465 (  3956 PWs)   bands (ev):

    -7.4138  -7.4069  -7.4069  -6.5132  -6.5126  -5.3962   1.2792   1.2792
     2.7357   3.6960

          k = 0.0000 0.0000 1.3229 (  3988 PWs)   bands (ev):

    -7.7637  -7.7637  -6.6316  -6.4283  -6.4270  -4.8299   1.9171   1.9171
     3.3106   4.2684

          k = 0.0000 0.0000 1.4993 (  3988 PWs)   bands (ev):

    -8.0624  -8.0624  -6.3496  -6.3487  -6.0722  -3.9550   2.6034   2.6034
     3.9702   4.9225

          k = 0.0000 0.0000 1.6757 (  4024 PWs)   bands (ev):

    -8.2949  -8.2949  -6.2854  -6.2844  -5.7317  -2.8267   3.3254   3.3254
     4.6724   4.8055

          k = 0.0000 0.0000 1.8521 (  3996 PWs)   bands (ev):

    -8.4524  -8.4524  -6.2380  -6.2371  -5.5314  -1.5997   3.3772   4.0422
     4.0422   5.5592

          k = 0.0000 0.0000 2.0285 (  3976 PWs)   bands (ev):

    -8.5318  -8.5318  -6.2136  -6.2127  -5.4357  -0.5381   2.2556   4.6010
     4.6010   6.4815

     the Fermi energy is    -5.2388 ev

!    total energy              =     -67.30772251 Ry
     Harris-Foulkes estimate   =     -67.30772282 Ry
     estimated scf accuracy    <          4.3E-09 Ry

     The total energy is the sum of the following terms:

     one-electron contribution =    -123.43097776 Ry
     hartree contribution      =      65.63875893 Ry
     xc contribution           =     -10.36173324 Ry
     ewald contribution        =       0.84746490 Ry
     smearing contrib. (-TS)   =      -0.00123533 Ry

     convergence has been achieved in   9 iterations

     Forces acting on atoms (Ry/au):

     atom    1 type  1   force =     0.00000000    0.00000000    0.00000000

     Total force =     0.000000     Total SCF correction =     0.000008

     Writing output data file gold_US.save
 
     init_run     :      1.17s CPU      1.23s WALL (       1 calls)
     electrons    :      7.49s CPU      7.58s WALL (       1 calls)
     forces       :      0.25s CPU      0.25s WALL (       1 calls)

     Called by init_run:
     wfcinit      :      0.15s CPU      0.15s WALL (       1 calls)
     potinit      :      0.16s CPU      0.16s WALL (       1 calls)

     Called by electrons:
     c_bands      :      4.19s CPU      4.28s WALL (      10 calls)
     sum_band     :      1.75s CPU      1.78s WALL (      10 calls)
     v_of_rho     :      0.49s CPU      0.50s WALL (      10 calls)
     newd         :      1.04s CPU      1.04s WALL (      10 calls)
     mix_rho      :      0.06s CPU      0.07s WALL (      10 calls)

     Called by c_bands:
     init_us_2    :      0.12s CPU      0.10s WALL (     264 calls)
     cegterg      :      3.95s CPU      3.98s WALL (     120 calls)

     Called by *egterg:
     h_psi        :      3.32s CPU      3.48s WALL (     503 calls)
     s_psi        :      0.05s CPU      0.07s WALL (     503 calls)
     g_psi        :      0.06s CPU      0.03s WALL (     371 calls)
     cdiaghg      :      0.15s CPU      0.18s WALL (     479 calls)

     Called by h_psi:
     add_vuspsi   :      0.05s CPU      0.07s WALL (     503 calls)

     General routines
     calbec       :      0.11s CPU      0.11s WALL (     635 calls)
     fft          :      0.37s CPU      0.42s WALL (     162 calls)
     ffts         :      0.01s CPU      0.01s WALL (      20 calls)
     fftw         :      3.37s CPU      3.36s WALL (    7568 calls)
     interpolate  :      0.07s CPU      0.07s WALL (      20 calls)
     davcio       :      0.01s CPU      0.00s WALL (      12 calls)
 
     Parallel routines
     fft_scatter  :      1.02s CPU      1.05s WALL (    7750 calls)
 
     PWSCF        :     9.03s CPU         9.25s WALL

 
   This run was terminated on:  11:11:44   1Aug2013            

=------------------------------------------------------------------------------=
   JOB DONE.
=------------------------------------------------------------------------------=
