
     Program PWSCF v.5.0.2 (svn rev. 10303M) starts on  1Aug2013 at 11:19:25 

     This program is part of the open-source Quantum ESPRESSO suite
     for quantum simulation of materials; please cite
         "P. Giannozzi et al., J. Phys.:Condens. Matter 21 395502 (2009);
          URL http://www.quantum-espresso.org", 
     in publications or presentations arising from this work. More details at
     http://www.quantum-espresso.org/quote

     Parallel version (MPI & OpenMP), running on       6 processor cores
     Number of MPI processes:                 6
     Threads/MPI process:                     1
     R & G space division:  proc/nbgrp/npool/nimage =       6
     Reading input from /home/ferretti/want/tests/test06/scf_CoUS.in

     Current dimensions of program PWSCF are:
     Max number of different atomic species (ntypx) = 10
     Max number of k-points (npk) =  40000
     Max angular momentum in pseudopotentials (lmaxx) =  3
               file Co.pbe-nd-rrkjus.UPF: wavefunction(s)  4S 3D renormalized

     Subspace diagonalization in iterative solution of the eigenvalue problem:
     a serial algorithm will be used

 
     Parallelization info
     --------------------
     sticks:   dense  smooth     PW     G-vecs:    dense   smooth      PW
     Min        2387     953    312                33871     8573    1593
     Max        2389     954    314                33872     8579    1594
     Sum       14329    5721   1877               203229    51461    9563
 


     bravais-lattice index     =            8
     lattice parameter (alat)  =      30.0000  a.u.
     unit-cell volume          =    4251.8880 (a.u.)^3
     number of atoms/cell      =            1
     number of atomic types    =            1
     number of electrons       =         9.00
     number of Kohn-Sham states=           10
     kinetic-energy cutoff     =      20.0000  Ry
     charge density cutoff     =     200.0000  Ry
     convergence threshold     =      1.0E-08
     mixing beta               =       0.3000
     number of iterations used =            8  plain     mixing
     Exchange-correlation      =  SLA  PW   PBE  PBE ( 1 4 3 4 0)
     EXX-fraction              =        0.00

     celldm(1)=  30.000000  celldm(2)=   1.000000  celldm(3)=   0.157477
     celldm(4)=   0.000000  celldm(5)=   0.000000  celldm(6)=   0.000000

     crystal axes: (cart. coord. in units of alat)
               a(1) = (   1.000000   0.000000   0.000000 )  
               a(2) = (   0.000000   1.000000   0.000000 )  
               a(3) = (   0.000000   0.000000   0.157477 )  

     reciprocal axes: (cart. coord. in units 2 pi/alat)
               b(1) = (  1.000000  0.000000  0.000000 )  
               b(2) = (  0.000000  1.000000  0.000000 )  
               b(3) = (  0.000000  0.000000  6.350120 )  


     PseudoPot. # 1 for Co read from file:
     ../pseudo/Co.pbe-nd-rrkjus.UPF
     MD5 check sum: 3e47a84addf5e975e0edeaeee2a73f59
     Pseudo is Ultrasoft + core correction, Zval =  9.0
     Generated by new atomic code, or converted to UPF format
     Using radial grid of  961 points,  6 beta functions with: 
                l(1) =   0
                l(2) =   0
                l(3) =   1
                l(4) =   1
                l(5) =   2
                l(6) =   2
     Q(r) pseudized with 0 coefficients 


     atomic species   valence    mass     pseudopotential
        Co             9.00    58.93320     Co( 1.00)

      8 Sym. Ops. (no inversion) found
          (note:  8 additional sym.ops. were found but ignored
           their fractional translations are incommensurate with FFT grid)


   Cartesian axes

     site n.     atom                  positions (alat units)
         1           Co  tau(   1) = (   0.0000000   0.0000000   0.0314954  )

     number of k points=    12  gaussian smearing, width (Ry)=  0.0100
                       cart. coord. in units 2pi/alat
        k(    1) = (   0.0000000   0.0000000   0.1322942), wk =   0.1666667
        k(    2) = (   0.0000000   0.0000000   0.3968825), wk =   0.1666667
        k(    3) = (   0.0000000   0.0000000   0.6614709), wk =   0.1666667
        k(    4) = (   0.0000000   0.0000000   0.9260592), wk =   0.1666667
        k(    5) = (   0.0000000   0.0000000   1.1906475), wk =   0.1666667
        k(    6) = (   0.0000000   0.0000000   1.4552359), wk =   0.1666667
        k(    7) = (   0.0000000   0.0000000   1.7198242), wk =   0.1666667
        k(    8) = (   0.0000000   0.0000000   1.9844126), wk =   0.1666667
        k(    9) = (   0.0000000   0.0000000   2.2490009), wk =   0.1666667
        k(   10) = (   0.0000000   0.0000000   2.5135893), wk =   0.1666667
        k(   11) = (   0.0000000   0.0000000   2.7781776), wk =   0.1666667
        k(   12) = (   0.0000000   0.0000000   3.0427659), wk =   0.1666667

     Dense  grid:   203229 G-vectors     FFT dimensions: ( 135, 135,  24)

     Smooth grid:    51461 G-vectors     FFT dimensions: (  90,  90,  15)

     Largest allocated arrays     est. size (Mb)     dimensions
        Kohn-Sham Wavefunctions         0.17 Mb     (    1086,   10)
        NL pseudopotentials             0.30 Mb     (    1086,   18)
        Each V/rho on FFT grid          1.11 Mb     (   72900)
        Each G-vector array             0.26 Mb     (   33872)
        G-vector shells                 0.07 Mb     (    8701)
     Largest temporary arrays     est. size (Mb)     dimensions
        Auxiliary wavefunctions         0.66 Mb     (    1086,   40)
        Each subspace H/S matrix        0.02 Mb     (      40,   40)
        Each <psi_i|beta_j> matrix      0.00 Mb     (      18,   10)
        Arrays for rho mixing           8.90 Mb     (   72900,    8)

     Check: negative/imaginary core charge=   -0.000009    0.000000

     Initial potential from superposition of free atoms
     Check: negative starting charge=   -0.023343

     starting charge    8.99948, renormalised to    9.00000

     negative rho (up, down):  2.334E-02 0.000E+00
     Starting wfc are    6 randomized atomic wfcs

     total cpu time spent up to now is        1.9 secs

     per-process dynamical memory:    28.8 Mb

     Self-consistent Calculation

     iteration #  1     ecut=    20.00 Ry     beta=0.30
     Davidson diagonalization with overlap
     ethr =  1.00E-02,  avg # of iterations =  6.9

     negative rho (up, down):  2.253E-02 0.000E+00

     total cpu time spent up to now is        4.1 secs

     total energy              =     -74.02528747 Ry
     Harris-Foulkes estimate   =     -74.09960305 Ry
     estimated scf accuracy    <       0.17351239 Ry

     iteration #  2     ecut=    20.00 Ry     beta=0.30
     Davidson diagonalization with overlap
     ethr =  1.93E-03,  avg # of iterations =  2.1

     negative rho (up, down):  2.380E-02 0.000E+00

     total cpu time spent up to now is        5.7 secs

     total energy              =     -74.05643382 Ry
     Harris-Foulkes estimate   =     -74.08908321 Ry
     estimated scf accuracy    <       0.12359780 Ry

     iteration #  3     ecut=    20.00 Ry     beta=0.30
     Davidson diagonalization with overlap
     ethr =  1.37E-03,  avg # of iterations =  1.0

     negative rho (up, down):  2.373E-02 0.000E+00

     total cpu time spent up to now is        7.1 secs

     total energy              =     -74.07216820 Ry
     Harris-Foulkes estimate   =     -74.07298228 Ry
     estimated scf accuracy    <       0.00372125 Ry

     iteration #  4     ecut=    20.00 Ry     beta=0.30
     Davidson diagonalization with overlap
     ethr =  4.13E-05,  avg # of iterations =  8.2

     negative rho (up, down):  2.439E-02 0.000E+00

     total cpu time spent up to now is        9.2 secs

     total energy              =     -74.07271325 Ry
     Harris-Foulkes estimate   =     -74.07308425 Ry
     estimated scf accuracy    <       0.00122975 Ry

     iteration #  5     ecut=    20.00 Ry     beta=0.30
     Davidson diagonalization with overlap
     ethr =  1.37E-05,  avg # of iterations =  2.6

     negative rho (up, down):  2.423E-02 0.000E+00

     total cpu time spent up to now is       10.7 secs

     total energy              =     -74.07286732 Ry
     Harris-Foulkes estimate   =     -74.07289640 Ry
     estimated scf accuracy    <       0.00013015 Ry

     iteration #  6     ecut=    20.00 Ry     beta=0.30
     Davidson diagonalization with overlap
     ethr =  1.45E-06,  avg # of iterations =  5.7

     negative rho (up, down):  2.419E-02 0.000E+00

     total cpu time spent up to now is       12.5 secs

     total energy              =     -74.07291132 Ry
     Harris-Foulkes estimate   =     -74.07290823 Ry
     estimated scf accuracy    <       0.00004040 Ry

     iteration #  7     ecut=    20.00 Ry     beta=0.30
     Davidson diagonalization with overlap
     ethr =  4.49E-07,  avg # of iterations =  1.0

     negative rho (up, down):  2.408E-02 0.000E+00

     total cpu time spent up to now is       14.0 secs

     total energy              =     -74.07292130 Ry
     Harris-Foulkes estimate   =     -74.07291452 Ry
     estimated scf accuracy    <       0.00000814 Ry

     iteration #  8     ecut=    20.00 Ry     beta=0.30
     Davidson diagonalization with overlap
     ethr =  9.05E-08,  avg # of iterations =  1.7

     negative rho (up, down):  2.399E-02 0.000E+00

     total cpu time spent up to now is       15.5 secs

     total energy              =     -74.07293050 Ry
     Harris-Foulkes estimate   =     -74.07292245 Ry
     estimated scf accuracy    <       0.00000054 Ry

     iteration #  9     ecut=    20.00 Ry     beta=0.30
     Davidson diagonalization with overlap
     ethr =  6.03E-09,  avg # of iterations =  2.2

     negative rho (up, down):  2.396E-02 0.000E+00

     total cpu time spent up to now is       17.0 secs

     total energy              =     -74.07293397 Ry
     Harris-Foulkes estimate   =     -74.07293078 Ry
     estimated scf accuracy    <       0.00000085 Ry

     iteration # 10     ecut=    20.00 Ry     beta=0.30
     Davidson diagonalization with overlap
     ethr =  6.03E-09,  avg # of iterations =  1.0

     negative rho (up, down):  2.394E-02 0.000E+00

     total cpu time spent up to now is       18.5 secs

     total energy              =     -74.07293561 Ry
     Harris-Foulkes estimate   =     -74.07293405 Ry
     estimated scf accuracy    <       0.00000004 Ry

     iteration # 11     ecut=    20.00 Ry     beta=0.30
     Davidson diagonalization with overlap
     ethr =  4.48E-10,  avg # of iterations =  2.7

     negative rho (up, down):  2.393E-02 0.000E+00

     total cpu time spent up to now is       20.1 secs

     total energy              =     -74.07293626 Ry
     Harris-Foulkes estimate   =     -74.07293562 Ry
     estimated scf accuracy    <       0.00000001 Ry

     iteration # 12     ecut=    20.00 Ry     beta=0.30
     Davidson diagonalization with overlap
     ethr =  1.53E-10,  avg # of iterations =  1.6

     negative rho (up, down):  2.391E-02 0.000E+00

     total cpu time spent up to now is       21.6 secs

     End of self-consistent calculation

          k = 0.0000 0.0000 0.1323 (  6491 PWs)   bands (ev):

    -7.3903  -5.2760  -4.9240  -4.9221  -4.3165  -4.3165  -1.9063  -1.9063
    -0.2372   0.2860

          k = 0.0000 0.0000 0.3969 (  6467 PWs)   bands (ev):

    -7.2847  -5.2380  -4.9117  -4.9087  -4.3958  -4.3958  -1.7791  -1.7791
    -0.1546   0.3693

          k = 0.0000 0.0000 0.6615 (  6471 PWs)   bands (ev):

    -7.0755  -5.1631  -4.8871  -4.8864  -4.5412  -4.5412  -1.5416  -1.5416
     0.0106   0.5360

          k = 0.0000 0.0000 0.9261 (  6479 PWs)   bands (ev):

    -6.7672  -5.0524  -4.8577  -4.8553  -4.7206  -4.7206  -1.2129  -1.2129
     0.2585   0.7857

          k = 0.0000 0.0000 1.1906 (  6439 PWs)   bands (ev):

    -6.3684  -4.9122  -4.9122  -4.9054  -4.8163  -4.8130  -0.8061  -0.8061
     0.5891   1.1188

          k = 0.0000 0.0000 1.4552 (  6431 PWs)   bands (ev):

    -5.8983  -5.1065  -5.1065  -4.7725  -4.7694  -4.7152  -0.3281  -0.3281
     1.0025   1.5354

          k = 0.0000 0.0000 1.7198 (  6403 PWs)   bands (ev):

    -5.4027  -5.2878  -5.2878  -4.7257  -4.7247  -4.4484   0.2188   0.2188
     1.4984   2.0355

          k = 0.0000 0.0000 1.9844 (  6407 PWs)   bands (ev):

    -5.4513  -5.4513  -4.9867  -4.6826  -4.6821  -4.0232   0.8333   0.8333
     2.0759   2.6190

          k = 0.0000 0.0000 2.2490 (  6383 PWs)   bands (ev):

    -5.5892  -5.5892  -4.7106  -4.6419  -4.6417  -3.3915   1.5137   1.5137
     2.7289   3.2861

          k = 0.0000 0.0000 2.5136 (  6362 PWs)   bands (ev):

    -5.6942  -5.6942  -4.6085  -4.6080  -4.5439  -2.6237   2.2549   2.2549
     3.1982   3.6248

          k = 0.0000 0.0000 2.7782 (  6354 PWs)   bands (ev):

    -5.7656  -5.7656  -4.5851  -4.5849  -4.4436  -1.8140   2.2524   3.0356
     3.0356   4.3520

          k = 0.0000 0.0000 3.0428 (  6386 PWs)   bands (ev):

    -5.8041  -5.8041  -4.5765  -4.5733  -4.3964  -1.1541   1.4591   3.7416
     3.7416   5.2542

     the Fermi energy is    -4.5832 ev

!    total energy              =     -74.07293699 Ry
     Harris-Foulkes estimate   =     -74.07293626 Ry
     estimated scf accuracy    <          3.2E-10 Ry

     The total energy is the sum of the following terms:

     one-electron contribution =    -125.18772312 Ry
     hartree contribution      =      69.27943901 Ry
     xc contribution           =     -32.62838630 Ry
     ewald contribution        =      14.47097307 Ry
     smearing contrib. (-TS)   =      -0.00723965 Ry

     convergence has been achieved in  12 iterations

     Forces acting on atoms (Ry/au):


     negative rho (up, down):  2.391E-02 0.000E+00
     atom    1 type  1   force =     0.00000000    0.00000000    0.00000000

     Total force =     0.000000     Total SCF correction =     0.000025

     Writing output data file cobalt_US.save
 
     init_run     :      1.63s CPU      1.70s WALL (       1 calls)
     electrons    :     19.48s CPU     19.73s WALL (       1 calls)
     forces       :      0.99s CPU      1.01s WALL (       1 calls)

     Called by init_run:
     wfcinit      :      0.29s CPU      0.31s WALL (       1 calls)
     potinit      :      0.32s CPU      0.33s WALL (       1 calls)

     Called by electrons:
     c_bands      :     10.21s CPU     10.26s WALL (      12 calls)
     sum_band     :      4.73s CPU      4.87s WALL (      12 calls)
     v_of_rho     :      1.30s CPU      1.34s WALL (      13 calls)
     newd         :      3.13s CPU      3.19s WALL (      13 calls)
     mix_rho      :      0.24s CPU      0.24s WALL (      12 calls)

     Called by c_bands:
     init_us_2    :      0.11s CPU      0.19s WALL (     312 calls)
     cegterg      :      9.69s CPU      9.68s WALL (     144 calls)

     Called by *egterg:
     h_psi        :      8.83s CPU      8.78s WALL (     594 calls)
     s_psi        :      0.11s CPU      0.12s WALL (     594 calls)
     g_psi        :      0.04s CPU      0.06s WALL (     438 calls)
     cdiaghg      :      0.23s CPU      0.25s WALL (     582 calls)

     Called by h_psi:
     add_vuspsi   :      0.08s CPU      0.12s WALL (     594 calls)

     General routines
     calbec       :      0.32s CPU      0.24s WALL (     750 calls)
     fft          :      1.35s CPU      1.42s WALL (     215 calls)
     ffts         :      0.03s CPU      0.04s WALL (      25 calls)
     fftw         :      8.44s CPU      8.42s WALL (    8986 calls)
     interpolate  :      0.20s CPU      0.22s WALL (      25 calls)
     davcio       :      0.01s CPU      0.00s WALL (      12 calls)
 
     Parallel routines
     fft_scatter  :      2.78s CPU      2.79s WALL (    9226 calls)
 
     PWSCF        :    22.25s CPU        22.67s WALL

 
   This run was terminated on:  11:19:48   1Aug2013            

=------------------------------------------------------------------------------=
   JOB DONE.
=------------------------------------------------------------------------------=
