
     Program POST-PROC v.3.2    starts ...
     Today is 19May2007 at  3:20:14 

     nbndx  =    20  nbnd   =    20  natomwfc =     4  npwx   =     654
     nelec  =   3.00  nkb   =     4  ngl    =     320
