
     Program POST-PROC v.3.2cvs starts ...
     Today is 14Oct2006 at 13:35:52 

     nbndx  =    16  nbnd   =    16  natomwfc =     8  npwx   =     869
     nelec  =   8.00  nkb   =     8  ngl    =     117
