
     Program POST-PROC v.3.2    starts ...
     Today is 12Jun2007 at 11:35:46 

     nbndx  =     4  nbnd   =     4  natomwfc =     8  npwx   =     302
     nelec  =   8.00  nkb   =    36  ngl    =     144
