
     Program POST-PROC v.2.1    starts ...
     Today is 10Feb2005 at 17:40:38 

     Reading file silicon.save ...      only dimensions
     read complete

     Reading file silicon.save ...      all except wavefuctions
     read complete

     nbndx  =    16  nbnd   =    16  natomwfc =     8  npwx   =     303
     nelec  =    8.00 nkb   =    36  ngl    =     144
