
     Program POST-PROC v.2.1.3  starts ...
     Today is  1Aug2005 at 12:24:37 

     Reading file al.save ... 
     read complete

     Reading file al.save ... 
     read complete

     nbndx  =    20  nbnd   =    20  natomwfc =     4  npwx   =    2247
     nelec  =    3.00 nkb   =     4  ngl    =    1119
