
     Program POST-PROC v.3.2    starts ...
     Today is 19May2007 at  2:45:33 

     nbndx  =    50  nbnd   =    50  natomwfc =    20  npwx   =    3235
     nelec  =  15.00  nkb   =    20  ngl    =    1594
