
     Program POST-PROC v.3.2cvs starts ...
     Today is 14Oct2006 at  6:47:25 

     nbndx  =    50  nbnd   =    50  natomwfc =    20  npwx   =    3235
     nelec  =  15.00  nkb   =    20  ngl    =    1594
