
     Program POST-PROC v.3.2    starts ...
     Today is  3Nov2006 at 20:20:23 

     nbndx  =    24  nbnd   =    24  natomwfc =    48  npwx   =    5177
     nelec  =  48.00  nkb   =    54  ngl    =    2121
