
     Program POST-PROC v.2.1.5  starts ...
     Today is 10Oct2005 at 12:12:52 

     Reading file copper.save ... 
     read complete

     Reading file copper.save ... 
     read complete

     nbndx  =    20  nbnd   =    20  natomwfc =     9  npwx   =    2148
     nelec  =   11.00 nkb   =     8  ngl    =     214
