
     Program POST-PROC v.2.1.3  starts ...
     Today is 27Jul2005 at 19:29:28 

     Reading file copper.save ... 
     read complete

     Reading file copper.save ... 
     read complete

     nbndx  =    10  nbnd   =    10  natomwfc =     9  npwx   =    2148
     nelec  =   11.00 nkb   =     8  ngl    =     214
