
     Program POST-PROC v.2.1.3  starts ...
     Today is 28Jul2005 at 13:18:48 

     Reading file gold_US.save ... 
     read complete

     Reading file gold_US.save ... 
     read complete

     nbndx  =    20  nbnd   =    20  natomwfc =    18  npwx   =    8007
     nelec  =   22.00 nkb   =    36  ngl    =    9453
