
     Program PWSCF v.5.0.2 (svn rev. 10303M) starts on 31Jul2013 at 18:41:43 

     This program is part of the open-source Quantum ESPRESSO suite
     for quantum simulation of materials; please cite
         "P. Giannozzi et al., J. Phys.:Condens. Matter 21 395502 (2009);
          URL http://www.quantum-espresso.org", 
     in publications or presentations arising from this work. More details at
     http://www.quantum-espresso.org/quote

     Parallel version (MPI & OpenMP), running on       6 processor cores
     Number of MPI processes:                 6
     Threads/MPI process:                     1
     R & G space division:  proc/nbgrp/npool/nimage =       6
     Reading input from /home/ferretti/want/tests/test16/bands_dft_Au1.in

     Current dimensions of program PWSCF are:
     Max number of different atomic species (ntypx) = 10
     Max number of k-points (npk) =  40000
     Max angular momentum in pseudopotentials (lmaxx) =  3

     Atomic positions and unit cell read from directory:
     ./SCRATCH/gold1.save/
 

     Subspace diagonalization in iterative solution of the eigenvalue problem:
     a serial algorithm will be used

 
     Parallelization info
     --------------------
     sticks:   dense  smooth     PW     G-vecs:    dense   smooth      PW
     Min        1061    1061    316                15056    15056    2465
     Max        1063    1063    317                15057    15057    2466
     Sum        6369    6369   1901                90341    90341   14791
 


     bravais-lattice index     =            8
     lattice parameter (alat)  =      20.0000  a.u.
     unit-cell volume          =    1889.7280 (a.u.)^3
     number of atoms/cell      =            1
     number of atomic types    =            1
     number of electrons       =        11.00
     number of Kohn-Sham states=            8
     kinetic-energy cutoff     =      50.0000  Ry
     charge density cutoff     =     200.0000  Ry
     Exchange-correlation      =  SLA  PW   GGX  GGC ( 1 4 2 2 0)
     EXX-fraction              =        0.00

     celldm(1)=  20.000000  celldm(2)=   1.000000  celldm(3)=   0.236216
     celldm(4)=   0.000000  celldm(5)=   0.000000  celldm(6)=   0.000000

     crystal axes: (cart. coord. in units of alat)
               a(1) = (   1.000000   0.000000   0.000000 )  
               a(2) = (   0.000000   1.000000   0.000000 )  
               a(3) = (   0.000000   0.000000   0.236216 )  

     reciprocal axes: (cart. coord. in units 2 pi/alat)
               b(1) = (  1.000000  0.000000  0.000000 )  
               b(2) = (  0.000000  1.000000  0.000000 )  
               b(3) = (  0.000000  0.000000  4.233413 )  


     PseudoPot. # 1 for Au read from file:
     ../pseudo/Au11pw91.mt.UPF
     MD5 check sum: e270e13d0e45fa10676aee720c7982d9
     Pseudo is Norm-conserving + core correction, Zval = 11.0
     Generated by new atomic code, or converted to UPF format
     Using radial grid of  331 points,  2 beta functions with: 
                l(1) =   1
                l(2) =   2

     atomic species   valence    mass     pseudopotential
        Au            11.00   196.96650     Au( 1.00)

     No symmetry found


                                    s                        frac. trans.

      isym =  1     identity                                     

 cryst.   s( 1) = (     1          0          0      )
                  (     0          1          0      )
                  (     0          0          1      )

 cart.    s( 1) = (  1.0000000  0.0000000  0.0000000 )
                  (  0.0000000  1.0000000  0.0000000 )
                  (  0.0000000  0.0000000  1.0000000 )


     point group C_1 (1)    
     there are  1 classes
     the character table:

       E    
A      1.00

     the symmetry operations in each class:
     E        1

   Cartesian axes

     site n.     atom                  positions (alat units)
         1           Au  tau(   1) = (   0.0000000   0.0000000   0.0000000  )

   Crystallographic axes

     site n.     atom                  positions (cryst. coord.)
         1           Au  tau(   1) = (  0.0000000  0.0000000  0.0000000  )

     number of k points=   500  gaussian smearing, width (Ry)=  0.0100
                       cart. coord. in units 2pi/alat
        k(    1) = (   0.0000000   0.0000000   0.0000000), wk =   0.0040000
        k(    2) = (   0.0000000   0.0000000   0.0042334), wk =   0.0040000
        k(    3) = (   0.0000000   0.0000000   0.0084668), wk =   0.0040000
        k(    4) = (   0.0000000   0.0000000   0.0127426), wk =   0.0040000
        k(    5) = (   0.0000000   0.0000000   0.0169760), wk =   0.0040000
        k(    6) = (   0.0000000   0.0000000   0.0212094), wk =   0.0040000
        k(    7) = (   0.0000000   0.0000000   0.0254428), wk =   0.0040000
        k(    8) = (   0.0000000   0.0000000   0.0296762), wk =   0.0040000
        k(    9) = (   0.0000000   0.0000000   0.0339520), wk =   0.0040000
        k(   10) = (   0.0000000   0.0000000   0.0381854), wk =   0.0040000
        k(   11) = (   0.0000000   0.0000000   0.0424188), wk =   0.0040000
        k(   12) = (   0.0000000   0.0000000   0.0466522), wk =   0.0040000
        k(   13) = (   0.0000000   0.0000000   0.0508856), wk =   0.0040000
        k(   14) = (   0.0000000   0.0000000   0.0551614), wk =   0.0040000
        k(   15) = (   0.0000000   0.0000000   0.0593948), wk =   0.0040000
        k(   16) = (   0.0000000   0.0000000   0.0636282), wk =   0.0040000
        k(   17) = (   0.0000000   0.0000000   0.0678616), wk =   0.0040000
        k(   18) = (   0.0000000   0.0000000   0.0720950), wk =   0.0040000
        k(   19) = (   0.0000000   0.0000000   0.0763708), wk =   0.0040000
        k(   20) = (   0.0000000   0.0000000   0.0806042), wk =   0.0040000
        k(   21) = (   0.0000000   0.0000000   0.0848376), wk =   0.0040000
        k(   22) = (   0.0000000   0.0000000   0.0890710), wk =   0.0040000
        k(   23) = (   0.0000000   0.0000000   0.0933044), wk =   0.0040000
        k(   24) = (   0.0000000   0.0000000   0.0975802), wk =   0.0040000
        k(   25) = (   0.0000000   0.0000000   0.1018136), wk =   0.0040000
        k(   26) = (   0.0000000   0.0000000   0.1060470), wk =   0.0040000
        k(   27) = (   0.0000000   0.0000000   0.1102804), wk =   0.0040000
        k(   28) = (   0.0000000   0.0000000   0.1145138), wk =   0.0040000
        k(   29) = (   0.0000000   0.0000000   0.1187896), wk =   0.0040000
        k(   30) = (   0.0000000   0.0000000   0.1230230), wk =   0.0040000
        k(   31) = (   0.0000000   0.0000000   0.1272564), wk =   0.0040000
        k(   32) = (   0.0000000   0.0000000   0.1314898), wk =   0.0040000
        k(   33) = (   0.0000000   0.0000000   0.1357232), wk =   0.0040000
        k(   34) = (   0.0000000   0.0000000   0.1399990), wk =   0.0040000
        k(   35) = (   0.0000000   0.0000000   0.1442324), wk =   0.0040000
        k(   36) = (   0.0000000   0.0000000   0.1484658), wk =   0.0040000
        k(   37) = (   0.0000000   0.0000000   0.1526992), wk =   0.0040000
        k(   38) = (   0.0000000   0.0000000   0.1569326), wk =   0.0040000
        k(   39) = (   0.0000000   0.0000000   0.1612084), wk =   0.0040000
        k(   40) = (   0.0000000   0.0000000   0.1654418), wk =   0.0040000
        k(   41) = (   0.0000000   0.0000000   0.1696752), wk =   0.0040000
        k(   42) = (   0.0000000   0.0000000   0.1739086), wk =   0.0040000
        k(   43) = (   0.0000000   0.0000000   0.1781420), wk =   0.0040000
        k(   44) = (   0.0000000   0.0000000   0.1824178), wk =   0.0040000
        k(   45) = (   0.0000000   0.0000000   0.1866512), wk =   0.0040000
        k(   46) = (   0.0000000   0.0000000   0.1908846), wk =   0.0040000
        k(   47) = (   0.0000000   0.0000000   0.1951180), wk =   0.0040000
        k(   48) = (   0.0000000   0.0000000   0.1993514), wk =   0.0040000
        k(   49) = (   0.0000000   0.0000000   0.2036272), wk =   0.0040000
        k(   50) = (   0.0000000   0.0000000   0.2078606), wk =   0.0040000
        k(   51) = (   0.0000000   0.0000000   0.2120940), wk =   0.0040000
        k(   52) = (   0.0000000   0.0000000   0.2163274), wk =   0.0040000
        k(   53) = (   0.0000000   0.0000000   0.2205608), wk =   0.0040000
        k(   54) = (   0.0000000   0.0000000   0.2248366), wk =   0.0040000
        k(   55) = (   0.0000000   0.0000000   0.2290700), wk =   0.0040000
        k(   56) = (   0.0000000   0.0000000   0.2333034), wk =   0.0040000
        k(   57) = (   0.0000000   0.0000000   0.2375368), wk =   0.0040000
        k(   58) = (   0.0000000   0.0000000   0.2417702), wk =   0.0040000
        k(   59) = (   0.0000000   0.0000000   0.2460460), wk =   0.0040000
        k(   60) = (   0.0000000   0.0000000   0.2502794), wk =   0.0040000
        k(   61) = (   0.0000000   0.0000000   0.2545128), wk =   0.0040000
        k(   62) = (   0.0000000   0.0000000   0.2587462), wk =   0.0040000
        k(   63) = (   0.0000000   0.0000000   0.2629796), wk =   0.0040000
        k(   64) = (   0.0000000   0.0000000   0.2672554), wk =   0.0040000
        k(   65) = (   0.0000000   0.0000000   0.2714888), wk =   0.0040000
        k(   66) = (   0.0000000   0.0000000   0.2757222), wk =   0.0040000
        k(   67) = (   0.0000000   0.0000000   0.2799556), wk =   0.0040000
        k(   68) = (   0.0000000   0.0000000   0.2841890), wk =   0.0040000
        k(   69) = (   0.0000000   0.0000000   0.2884648), wk =   0.0040000
        k(   70) = (   0.0000000   0.0000000   0.2926982), wk =   0.0040000
        k(   71) = (   0.0000000   0.0000000   0.2969316), wk =   0.0040000
        k(   72) = (   0.0000000   0.0000000   0.3011650), wk =   0.0040000
        k(   73) = (   0.0000000   0.0000000   0.3053984), wk =   0.0040000
        k(   74) = (   0.0000000   0.0000000   0.3096742), wk =   0.0040000
        k(   75) = (   0.0000000   0.0000000   0.3139076), wk =   0.0040000
        k(   76) = (   0.0000000   0.0000000   0.3181410), wk =   0.0040000
        k(   77) = (   0.0000000   0.0000000   0.3223744), wk =   0.0040000
        k(   78) = (   0.0000000   0.0000000   0.3266079), wk =   0.0040000
        k(   79) = (   0.0000000   0.0000000   0.3308836), wk =   0.0040000
        k(   80) = (   0.0000000   0.0000000   0.3351170), wk =   0.0040000
        k(   81) = (   0.0000000   0.0000000   0.3393504), wk =   0.0040000
        k(   82) = (   0.0000000   0.0000000   0.3435838), wk =   0.0040000
        k(   83) = (   0.0000000   0.0000000   0.3478173), wk =   0.0040000
        k(   84) = (   0.0000000   0.0000000   0.3520930), wk =   0.0040000
        k(   85) = (   0.0000000   0.0000000   0.3563264), wk =   0.0040000
        k(   86) = (   0.0000000   0.0000000   0.3605598), wk =   0.0040000
        k(   87) = (   0.0000000   0.0000000   0.3647932), wk =   0.0040000
        k(   88) = (   0.0000000   0.0000000   0.3690267), wk =   0.0040000
        k(   89) = (   0.0000000   0.0000000   0.3733024), wk =   0.0040000
        k(   90) = (   0.0000000   0.0000000   0.3775358), wk =   0.0040000
        k(   91) = (   0.0000000   0.0000000   0.3817692), wk =   0.0040000
        k(   92) = (   0.0000000   0.0000000   0.3860026), wk =   0.0040000
        k(   93) = (   0.0000000   0.0000000   0.3902361), wk =   0.0040000
        k(   94) = (   0.0000000   0.0000000   0.3945118), wk =   0.0040000
        k(   95) = (   0.0000000   0.0000000   0.3987452), wk =   0.0040000
        k(   96) = (   0.0000000   0.0000000   0.4029786), wk =   0.0040000
        k(   97) = (   0.0000000   0.0000000   0.4072120), wk =   0.0040000
        k(   98) = (   0.0000000   0.0000000   0.4114455), wk =   0.0040000
        k(   99) = (   0.0000000   0.0000000   0.4157212), wk =   0.0040000
        k(  100) = (   0.0000000   0.0000000   0.4199546), wk =   0.0040000
        k(  101) = (   0.0000000   0.0000000   0.4241880), wk =   0.0040000
        k(  102) = (   0.0000000   0.0000000   0.4284214), wk =   0.0040000
        k(  103) = (   0.0000000   0.0000000   0.4326549), wk =   0.0040000
        k(  104) = (   0.0000000   0.0000000   0.4369306), wk =   0.0040000
        k(  105) = (   0.0000000   0.0000000   0.4411640), wk =   0.0040000
        k(  106) = (   0.0000000   0.0000000   0.4453974), wk =   0.0040000
        k(  107) = (   0.0000000   0.0000000   0.4496308), wk =   0.0040000
        k(  108) = (   0.0000000   0.0000000   0.4538643), wk =   0.0040000
        k(  109) = (   0.0000000   0.0000000   0.4581400), wk =   0.0040000
        k(  110) = (   0.0000000   0.0000000   0.4623734), wk =   0.0040000
        k(  111) = (   0.0000000   0.0000000   0.4666068), wk =   0.0040000
        k(  112) = (   0.0000000   0.0000000   0.4708402), wk =   0.0040000
        k(  113) = (   0.0000000   0.0000000   0.4750737), wk =   0.0040000
        k(  114) = (   0.0000000   0.0000000   0.4793494), wk =   0.0040000
        k(  115) = (   0.0000000   0.0000000   0.4835828), wk =   0.0040000
        k(  116) = (   0.0000000   0.0000000   0.4878162), wk =   0.0040000
        k(  117) = (   0.0000000   0.0000000   0.4920496), wk =   0.0040000
        k(  118) = (   0.0000000   0.0000000   0.4962831), wk =   0.0040000
        k(  119) = (   0.0000000   0.0000000   0.5005588), wk =   0.0040000
        k(  120) = (   0.0000000   0.0000000   0.5047922), wk =   0.0040000
        k(  121) = (   0.0000000   0.0000000   0.5090256), wk =   0.0040000
        k(  122) = (   0.0000000   0.0000000   0.5132591), wk =   0.0040000
        k(  123) = (   0.0000000   0.0000000   0.5174925), wk =   0.0040000
        k(  124) = (   0.0000000   0.0000000   0.5217682), wk =   0.0040000
        k(  125) = (   0.0000000   0.0000000   0.5260016), wk =   0.0040000
        k(  126) = (   0.0000000   0.0000000   0.5302350), wk =   0.0040000
        k(  127) = (   0.0000000   0.0000000   0.5344685), wk =   0.0040000
        k(  128) = (   0.0000000   0.0000000   0.5387019), wk =   0.0040000
        k(  129) = (   0.0000000   0.0000000   0.5429776), wk =   0.0040000
        k(  130) = (   0.0000000   0.0000000   0.5472110), wk =   0.0040000
        k(  131) = (   0.0000000   0.0000000   0.5514444), wk =   0.0040000
        k(  132) = (   0.0000000   0.0000000   0.5556779), wk =   0.0040000
        k(  133) = (   0.0000000   0.0000000   0.5599113), wk =   0.0040000
        k(  134) = (   0.0000000   0.0000000   0.5641870), wk =   0.0040000
        k(  135) = (   0.0000000   0.0000000   0.5684204), wk =   0.0040000
        k(  136) = (   0.0000000   0.0000000   0.5726538), wk =   0.0040000
        k(  137) = (   0.0000000   0.0000000   0.5768873), wk =   0.0040000
        k(  138) = (   0.0000000   0.0000000   0.5811207), wk =   0.0040000
        k(  139) = (   0.0000000   0.0000000   0.5853964), wk =   0.0040000
        k(  140) = (   0.0000000   0.0000000   0.5896298), wk =   0.0040000
        k(  141) = (   0.0000000   0.0000000   0.5938632), wk =   0.0040000
        k(  142) = (   0.0000000   0.0000000   0.5980967), wk =   0.0040000
        k(  143) = (   0.0000000   0.0000000   0.6023301), wk =   0.0040000
        k(  144) = (   0.0000000   0.0000000   0.6066058), wk =   0.0040000
        k(  145) = (   0.0000000   0.0000000   0.6108392), wk =   0.0040000
        k(  146) = (   0.0000000   0.0000000   0.6150726), wk =   0.0040000
        k(  147) = (   0.0000000   0.0000000   0.6193061), wk =   0.0040000
        k(  148) = (   0.0000000   0.0000000   0.6235395), wk =   0.0040000
        k(  149) = (   0.0000000   0.0000000   0.6278152), wk =   0.0040000
        k(  150) = (   0.0000000   0.0000000   0.6320486), wk =   0.0040000
        k(  151) = (   0.0000000   0.0000000   0.6362820), wk =   0.0040000
        k(  152) = (   0.0000000   0.0000000   0.6405155), wk =   0.0040000
        k(  153) = (   0.0000000   0.0000000   0.6447489), wk =   0.0040000
        k(  154) = (   0.0000000   0.0000000   0.6490246), wk =   0.0040000
        k(  155) = (   0.0000000   0.0000000   0.6532580), wk =   0.0040000
        k(  156) = (   0.0000000   0.0000000   0.6574914), wk =   0.0040000
        k(  157) = (   0.0000000   0.0000000   0.6617249), wk =   0.0040000
        k(  158) = (   0.0000000   0.0000000   0.6659583), wk =   0.0040000
        k(  159) = (   0.0000000   0.0000000   0.6702340), wk =   0.0040000
        k(  160) = (   0.0000000   0.0000000   0.6744674), wk =   0.0040000
        k(  161) = (   0.0000000   0.0000000   0.6787009), wk =   0.0040000
        k(  162) = (   0.0000000   0.0000000   0.6829343), wk =   0.0040000
        k(  163) = (   0.0000000   0.0000000   0.6871677), wk =   0.0040000
        k(  164) = (   0.0000000   0.0000000   0.6914434), wk =   0.0040000
        k(  165) = (   0.0000000   0.0000000   0.6956768), wk =   0.0040000
        k(  166) = (   0.0000000   0.0000000   0.6999103), wk =   0.0040000
        k(  167) = (   0.0000000   0.0000000   0.7041437), wk =   0.0040000
        k(  168) = (   0.0000000   0.0000000   0.7083771), wk =   0.0040000
        k(  169) = (   0.0000000   0.0000000   0.7126528), wk =   0.0040000
        k(  170) = (   0.0000000   0.0000000   0.7168862), wk =   0.0040000
        k(  171) = (   0.0000000   0.0000000   0.7211197), wk =   0.0040000
        k(  172) = (   0.0000000   0.0000000   0.7253531), wk =   0.0040000
        k(  173) = (   0.0000000   0.0000000   0.7295865), wk =   0.0040000
        k(  174) = (   0.0000000   0.0000000   0.7338622), wk =   0.0040000
        k(  175) = (   0.0000000   0.0000000   0.7380956), wk =   0.0040000
        k(  176) = (   0.0000000   0.0000000   0.7423291), wk =   0.0040000
        k(  177) = (   0.0000000   0.0000000   0.7465625), wk =   0.0040000
        k(  178) = (   0.0000000   0.0000000   0.7507959), wk =   0.0040000
        k(  179) = (   0.0000000   0.0000000   0.7550716), wk =   0.0040000
        k(  180) = (   0.0000000   0.0000000   0.7593050), wk =   0.0040000
        k(  181) = (   0.0000000   0.0000000   0.7635385), wk =   0.0040000
        k(  182) = (   0.0000000   0.0000000   0.7677719), wk =   0.0040000
        k(  183) = (   0.0000000   0.0000000   0.7720053), wk =   0.0040000
        k(  184) = (   0.0000000   0.0000000   0.7762810), wk =   0.0040000
        k(  185) = (   0.0000000   0.0000000   0.7805144), wk =   0.0040000
        k(  186) = (   0.0000000   0.0000000   0.7847479), wk =   0.0040000
        k(  187) = (   0.0000000   0.0000000   0.7889813), wk =   0.0040000
        k(  188) = (   0.0000000   0.0000000   0.7932147), wk =   0.0040000
        k(  189) = (   0.0000000   0.0000000   0.7974904), wk =   0.0040000
        k(  190) = (   0.0000000   0.0000000   0.8017238), wk =   0.0040000
        k(  191) = (   0.0000000   0.0000000   0.8059573), wk =   0.0040000
        k(  192) = (   0.0000000   0.0000000   0.8101907), wk =   0.0040000
        k(  193) = (   0.0000000   0.0000000   0.8144241), wk =   0.0040000
        k(  194) = (   0.0000000   0.0000000   0.8186998), wk =   0.0040000
        k(  195) = (   0.0000000   0.0000000   0.8229332), wk =   0.0040000
        k(  196) = (   0.0000000   0.0000000   0.8271667), wk =   0.0040000
        k(  197) = (   0.0000000   0.0000000   0.8314001), wk =   0.0040000
        k(  198) = (   0.0000000   0.0000000   0.8356335), wk =   0.0040000
        k(  199) = (   0.0000000   0.0000000   0.8399092), wk =   0.0040000
        k(  200) = (   0.0000000   0.0000000   0.8441426), wk =   0.0040000
        k(  201) = (   0.0000000   0.0000000   0.8483761), wk =   0.0040000
        k(  202) = (   0.0000000   0.0000000   0.8526095), wk =   0.0040000
        k(  203) = (   0.0000000   0.0000000   0.8568429), wk =   0.0040000
        k(  204) = (   0.0000000   0.0000000   0.8611186), wk =   0.0040000
        k(  205) = (   0.0000000   0.0000000   0.8653521), wk =   0.0040000
        k(  206) = (   0.0000000   0.0000000   0.8695855), wk =   0.0040000
        k(  207) = (   0.0000000   0.0000000   0.8738189), wk =   0.0040000
        k(  208) = (   0.0000000   0.0000000   0.8780523), wk =   0.0040000
        k(  209) = (   0.0000000   0.0000000   0.8823280), wk =   0.0040000
        k(  210) = (   0.0000000   0.0000000   0.8865615), wk =   0.0040000
        k(  211) = (   0.0000000   0.0000000   0.8907949), wk =   0.0040000
        k(  212) = (   0.0000000   0.0000000   0.8950283), wk =   0.0040000
        k(  213) = (   0.0000000   0.0000000   0.8992617), wk =   0.0040000
        k(  214) = (   0.0000000   0.0000000   0.9035374), wk =   0.0040000
        k(  215) = (   0.0000000   0.0000000   0.9077709), wk =   0.0040000
        k(  216) = (   0.0000000   0.0000000   0.9120043), wk =   0.0040000
        k(  217) = (   0.0000000   0.0000000   0.9162377), wk =   0.0040000
        k(  218) = (   0.0000000   0.0000000   0.9204711), wk =   0.0040000
        k(  219) = (   0.0000000   0.0000000   0.9247468), wk =   0.0040000
        k(  220) = (   0.0000000   0.0000000   0.9289803), wk =   0.0040000
        k(  221) = (   0.0000000   0.0000000   0.9332137), wk =   0.0040000
        k(  222) = (   0.0000000   0.0000000   0.9374471), wk =   0.0040000
        k(  223) = (   0.0000000   0.0000000   0.9416805), wk =   0.0040000
        k(  224) = (   0.0000000   0.0000000   0.9459562), wk =   0.0040000
        k(  225) = (   0.0000000   0.0000000   0.9501897), wk =   0.0040000
        k(  226) = (   0.0000000   0.0000000   0.9544231), wk =   0.0040000
        k(  227) = (   0.0000000   0.0000000   0.9586565), wk =   0.0040000
        k(  228) = (   0.0000000   0.0000000   0.9628899), wk =   0.0040000
        k(  229) = (   0.0000000   0.0000000   0.9671656), wk =   0.0040000
        k(  230) = (   0.0000000   0.0000000   0.9713991), wk =   0.0040000
        k(  231) = (   0.0000000   0.0000000   0.9756325), wk =   0.0040000
        k(  232) = (   0.0000000   0.0000000   0.9798659), wk =   0.0040000
        k(  233) = (   0.0000000   0.0000000   0.9840993), wk =   0.0040000
        k(  234) = (   0.0000000   0.0000000   0.9883750), wk =   0.0040000
        k(  235) = (   0.0000000   0.0000000   0.9926085), wk =   0.0040000
        k(  236) = (   0.0000000   0.0000000   0.9968419), wk =   0.0040000
        k(  237) = (   0.0000000   0.0000000   1.0010753), wk =   0.0040000
        k(  238) = (   0.0000000   0.0000000   1.0053087), wk =   0.0040000
        k(  239) = (   0.0000000   0.0000000   1.0095844), wk =   0.0040000
        k(  240) = (   0.0000000   0.0000000   1.0138179), wk =   0.0040000
        k(  241) = (   0.0000000   0.0000000   1.0180513), wk =   0.0040000
        k(  242) = (   0.0000000   0.0000000   1.0222847), wk =   0.0040000
        k(  243) = (   0.0000000   0.0000000   1.0265181), wk =   0.0040000
        k(  244) = (   0.0000000   0.0000000   1.0307938), wk =   0.0040000
        k(  245) = (   0.0000000   0.0000000   1.0350273), wk =   0.0040000
        k(  246) = (   0.0000000   0.0000000   1.0392607), wk =   0.0040000
        k(  247) = (   0.0000000   0.0000000   1.0434941), wk =   0.0040000
        k(  248) = (   0.0000000   0.0000000   1.0477275), wk =   0.0040000
        k(  249) = (   0.0000000   0.0000000   1.0520033), wk =   0.0040000
        k(  250) = (   0.0000000   0.0000000   1.0562367), wk =   0.0040000
        k(  251) = (   0.0000000   0.0000000   1.0604701), wk =   0.0040000
        k(  252) = (   0.0000000   0.0000000   1.0647035), wk =   0.0040000
        k(  253) = (   0.0000000   0.0000000   1.0689792), wk =   0.0040000
        k(  254) = (   0.0000000   0.0000000   1.0732127), wk =   0.0040000
        k(  255) = (   0.0000000   0.0000000   1.0774461), wk =   0.0040000
        k(  256) = (   0.0000000   0.0000000   1.0816795), wk =   0.0040000
        k(  257) = (   0.0000000   0.0000000   1.0859129), wk =   0.0040000
        k(  258) = (   0.0000000   0.0000000   1.0901886), wk =   0.0040000
        k(  259) = (   0.0000000   0.0000000   1.0944221), wk =   0.0040000
        k(  260) = (   0.0000000   0.0000000   1.0986555), wk =   0.0040000
        k(  261) = (   0.0000000   0.0000000   1.1028889), wk =   0.0040000
        k(  262) = (   0.0000000   0.0000000   1.1071223), wk =   0.0040000
        k(  263) = (   0.0000000   0.0000000   1.1113980), wk =   0.0040000
        k(  264) = (   0.0000000   0.0000000   1.1156315), wk =   0.0040000
        k(  265) = (   0.0000000   0.0000000   1.1198649), wk =   0.0040000
        k(  266) = (   0.0000000   0.0000000   1.1240983), wk =   0.0040000
        k(  267) = (   0.0000000   0.0000000   1.1283317), wk =   0.0040000
        k(  268) = (   0.0000000   0.0000000   1.1326074), wk =   0.0040000
        k(  269) = (   0.0000000   0.0000000   1.1368409), wk =   0.0040000
        k(  270) = (   0.0000000   0.0000000   1.1410743), wk =   0.0040000
        k(  271) = (   0.0000000   0.0000000   1.1453077), wk =   0.0040000
        k(  272) = (   0.0000000   0.0000000   1.1495411), wk =   0.0040000
        k(  273) = (   0.0000000   0.0000000   1.1538168), wk =   0.0040000
        k(  274) = (   0.0000000   0.0000000   1.1580503), wk =   0.0040000
        k(  275) = (   0.0000000   0.0000000   1.1622837), wk =   0.0040000
        k(  276) = (   0.0000000   0.0000000   1.1665171), wk =   0.0040000
        k(  277) = (   0.0000000   0.0000000   1.1707505), wk =   0.0040000
        k(  278) = (   0.0000000   0.0000000   1.1750262), wk =   0.0040000
        k(  279) = (   0.0000000   0.0000000   1.1792597), wk =   0.0040000
        k(  280) = (   0.0000000   0.0000000   1.1834931), wk =   0.0040000
        k(  281) = (   0.0000000   0.0000000   1.1877265), wk =   0.0040000
        k(  282) = (   0.0000000   0.0000000   1.1919599), wk =   0.0040000
        k(  283) = (   0.0000000   0.0000000   1.1962356), wk =   0.0040000
        k(  284) = (   0.0000000   0.0000000   1.2004691), wk =   0.0040000
        k(  285) = (   0.0000000   0.0000000   1.2047025), wk =   0.0040000
        k(  286) = (   0.0000000   0.0000000   1.2089359), wk =   0.0040000
        k(  287) = (   0.0000000   0.0000000   1.2131693), wk =   0.0040000
        k(  288) = (   0.0000000   0.0000000   1.2174451), wk =   0.0040000
        k(  289) = (   0.0000000   0.0000000   1.2216785), wk =   0.0040000
        k(  290) = (   0.0000000   0.0000000   1.2259119), wk =   0.0040000
        k(  291) = (   0.0000000   0.0000000   1.2301453), wk =   0.0040000
        k(  292) = (   0.0000000   0.0000000   1.2343787), wk =   0.0040000
        k(  293) = (   0.0000000   0.0000000   1.2386545), wk =   0.0040000
        k(  294) = (   0.0000000   0.0000000   1.2428879), wk =   0.0040000
        k(  295) = (   0.0000000   0.0000000   1.2471213), wk =   0.0040000
        k(  296) = (   0.0000000   0.0000000   1.2513547), wk =   0.0040000
        k(  297) = (   0.0000000   0.0000000   1.2555881), wk =   0.0040000
        k(  298) = (   0.0000000   0.0000000   1.2598639), wk =   0.0040000
        k(  299) = (   0.0000000   0.0000000   1.2640973), wk =   0.0040000
        k(  300) = (   0.0000000   0.0000000   1.2683307), wk =   0.0040000
        k(  301) = (   0.0000000   0.0000000   1.2725641), wk =   0.0040000
        k(  302) = (   0.0000000   0.0000000   1.2767975), wk =   0.0040000
        k(  303) = (   0.0000000   0.0000000   1.2810733), wk =   0.0040000
        k(  304) = (   0.0000000   0.0000000   1.2853067), wk =   0.0040000
        k(  305) = (   0.0000000   0.0000000   1.2895401), wk =   0.0040000
        k(  306) = (   0.0000000   0.0000000   1.2937735), wk =   0.0040000
        k(  307) = (   0.0000000   0.0000000   1.2980069), wk =   0.0040000
        k(  308) = (   0.0000000   0.0000000   1.3022827), wk =   0.0040000
        k(  309) = (   0.0000000   0.0000000   1.3065161), wk =   0.0040000
        k(  310) = (   0.0000000   0.0000000   1.3107495), wk =   0.0040000
        k(  311) = (   0.0000000   0.0000000   1.3149829), wk =   0.0040000
        k(  312) = (   0.0000000   0.0000000   1.3192163), wk =   0.0040000
        k(  313) = (   0.0000000   0.0000000   1.3234921), wk =   0.0040000
        k(  314) = (   0.0000000   0.0000000   1.3277255), wk =   0.0040000
        k(  315) = (   0.0000000   0.0000000   1.3319589), wk =   0.0040000
        k(  316) = (   0.0000000   0.0000000   1.3361923), wk =   0.0040000
        k(  317) = (   0.0000000   0.0000000   1.3404257), wk =   0.0040000
        k(  318) = (   0.0000000   0.0000000   1.3447015), wk =   0.0040000
        k(  319) = (   0.0000000   0.0000000   1.3489349), wk =   0.0040000
        k(  320) = (   0.0000000   0.0000000   1.3531683), wk =   0.0040000
        k(  321) = (   0.0000000   0.0000000   1.3574017), wk =   0.0040000
        k(  322) = (   0.0000000   0.0000000   1.3616351), wk =   0.0040000
        k(  323) = (   0.0000000   0.0000000   1.3659109), wk =   0.0040000
        k(  324) = (   0.0000000   0.0000000   1.3701443), wk =   0.0040000
        k(  325) = (   0.0000000   0.0000000   1.3743777), wk =   0.0040000
        k(  326) = (   0.0000000   0.0000000   1.3786111), wk =   0.0040000
        k(  327) = (   0.0000000   0.0000000   1.3828445), wk =   0.0040000
        k(  328) = (   0.0000000   0.0000000   1.3871203), wk =   0.0040000
        k(  329) = (   0.0000000   0.0000000   1.3913537), wk =   0.0040000
        k(  330) = (   0.0000000   0.0000000   1.3955871), wk =   0.0040000
        k(  331) = (   0.0000000   0.0000000   1.3998205), wk =   0.0040000
        k(  332) = (   0.0000000   0.0000000   1.4040539), wk =   0.0040000
        k(  333) = (   0.0000000   0.0000000   1.4083297), wk =   0.0040000
        k(  334) = (   0.0000000   0.0000000   1.4125631), wk =   0.0040000
        k(  335) = (   0.0000000   0.0000000   1.4167965), wk =   0.0040000
        k(  336) = (   0.0000000   0.0000000   1.4210299), wk =   0.0040000
        k(  337) = (   0.0000000   0.0000000   1.4252633), wk =   0.0040000
        k(  338) = (   0.0000000   0.0000000   1.4295391), wk =   0.0040000
        k(  339) = (   0.0000000   0.0000000   1.4337725), wk =   0.0040000
        k(  340) = (   0.0000000   0.0000000   1.4380059), wk =   0.0040000
        k(  341) = (   0.0000000   0.0000000   1.4422393), wk =   0.0040000
        k(  342) = (   0.0000000   0.0000000   1.4464727), wk =   0.0040000
        k(  343) = (   0.0000000   0.0000000   1.4507485), wk =   0.0040000
        k(  344) = (   0.0000000   0.0000000   1.4549819), wk =   0.0040000
        k(  345) = (   0.0000000   0.0000000   1.4592153), wk =   0.0040000
        k(  346) = (   0.0000000   0.0000000   1.4634487), wk =   0.0040000
        k(  347) = (   0.0000000   0.0000000   1.4676821), wk =   0.0040000
        k(  348) = (   0.0000000   0.0000000   1.4719579), wk =   0.0040000
        k(  349) = (   0.0000000   0.0000000   1.4761913), wk =   0.0040000
        k(  350) = (   0.0000000   0.0000000   1.4804247), wk =   0.0040000
        k(  351) = (   0.0000000   0.0000000   1.4846581), wk =   0.0040000
        k(  352) = (   0.0000000   0.0000000   1.4888915), wk =   0.0040000
        k(  353) = (   0.0000000   0.0000000   1.4931673), wk =   0.0040000
        k(  354) = (   0.0000000   0.0000000   1.4974007), wk =   0.0040000
        k(  355) = (   0.0000000   0.0000000   1.5016341), wk =   0.0040000
        k(  356) = (   0.0000000   0.0000000   1.5058675), wk =   0.0040000
        k(  357) = (   0.0000000   0.0000000   1.5101009), wk =   0.0040000
        k(  358) = (   0.0000000   0.0000000   1.5143767), wk =   0.0040000
        k(  359) = (   0.0000000   0.0000000   1.5186101), wk =   0.0040000
        k(  360) = (   0.0000000   0.0000000   1.5228435), wk =   0.0040000
        k(  361) = (   0.0000000   0.0000000   1.5270769), wk =   0.0040000
        k(  362) = (   0.0000000   0.0000000   1.5313103), wk =   0.0040000
        k(  363) = (   0.0000000   0.0000000   1.5355861), wk =   0.0040000
        k(  364) = (   0.0000000   0.0000000   1.5398195), wk =   0.0040000
        k(  365) = (   0.0000000   0.0000000   1.5440529), wk =   0.0040000
        k(  366) = (   0.0000000   0.0000000   1.5482863), wk =   0.0040000
        k(  367) = (   0.0000000   0.0000000   1.5525197), wk =   0.0040000
        k(  368) = (   0.0000000   0.0000000   1.5567955), wk =   0.0040000
        k(  369) = (   0.0000000   0.0000000   1.5610289), wk =   0.0040000
        k(  370) = (   0.0000000   0.0000000   1.5652623), wk =   0.0040000
        k(  371) = (   0.0000000   0.0000000   1.5694957), wk =   0.0040000
        k(  372) = (   0.0000000   0.0000000   1.5737291), wk =   0.0040000
        k(  373) = (   0.0000000   0.0000000   1.5780049), wk =   0.0040000
        k(  374) = (   0.0000000   0.0000000   1.5822383), wk =   0.0040000
        k(  375) = (   0.0000000   0.0000000   1.5864717), wk =   0.0040000
        k(  376) = (   0.0000000   0.0000000   1.5907051), wk =   0.0040000
        k(  377) = (   0.0000000   0.0000000   1.5949385), wk =   0.0040000
        k(  378) = (   0.0000000   0.0000000   1.5992143), wk =   0.0040000
        k(  379) = (   0.0000000   0.0000000   1.6034477), wk =   0.0040000
        k(  380) = (   0.0000000   0.0000000   1.6076811), wk =   0.0040000
        k(  381) = (   0.0000000   0.0000000   1.6119145), wk =   0.0040000
        k(  382) = (   0.0000000   0.0000000   1.6161479), wk =   0.0040000
        k(  383) = (   0.0000000   0.0000000   1.6204237), wk =   0.0040000
        k(  384) = (   0.0000000   0.0000000   1.6246571), wk =   0.0040000
        k(  385) = (   0.0000000   0.0000000   1.6288905), wk =   0.0040000
        k(  386) = (   0.0000000   0.0000000   1.6331239), wk =   0.0040000
        k(  387) = (   0.0000000   0.0000000   1.6373573), wk =   0.0040000
        k(  388) = (   0.0000000   0.0000000   1.6416331), wk =   0.0040000
        k(  389) = (   0.0000000   0.0000000   1.6458665), wk =   0.0040000
        k(  390) = (   0.0000000   0.0000000   1.6500999), wk =   0.0040000
        k(  391) = (   0.0000000   0.0000000   1.6543333), wk =   0.0040000
        k(  392) = (   0.0000000   0.0000000   1.6585667), wk =   0.0040000
        k(  393) = (   0.0000000   0.0000000   1.6628425), wk =   0.0040000
        k(  394) = (   0.0000000   0.0000000   1.6670759), wk =   0.0040000
        k(  395) = (   0.0000000   0.0000000   1.6713093), wk =   0.0040000
        k(  396) = (   0.0000000   0.0000000   1.6755427), wk =   0.0040000
        k(  397) = (   0.0000000   0.0000000   1.6797761), wk =   0.0040000
        k(  398) = (   0.0000000   0.0000000   1.6840519), wk =   0.0040000
        k(  399) = (   0.0000000   0.0000000   1.6882853), wk =   0.0040000
        k(  400) = (   0.0000000   0.0000000   1.6925187), wk =   0.0040000
        k(  401) = (   0.0000000   0.0000000   1.6967521), wk =   0.0040000
        k(  402) = (   0.0000000   0.0000000   1.7009855), wk =   0.0040000
        k(  403) = (   0.0000000   0.0000000   1.7052613), wk =   0.0040000
        k(  404) = (   0.0000000   0.0000000   1.7094947), wk =   0.0040000
        k(  405) = (   0.0000000   0.0000000   1.7137281), wk =   0.0040000
        k(  406) = (   0.0000000   0.0000000   1.7179615), wk =   0.0040000
        k(  407) = (   0.0000000   0.0000000   1.7221949), wk =   0.0040000
        k(  408) = (   0.0000000   0.0000000   1.7264707), wk =   0.0040000
        k(  409) = (   0.0000000   0.0000000   1.7307041), wk =   0.0040000
        k(  410) = (   0.0000000   0.0000000   1.7349375), wk =   0.0040000
        k(  411) = (   0.0000000   0.0000000   1.7391709), wk =   0.0040000
        k(  412) = (   0.0000000   0.0000000   1.7434043), wk =   0.0040000
        k(  413) = (   0.0000000   0.0000000   1.7476801), wk =   0.0040000
        k(  414) = (   0.0000000   0.0000000   1.7519135), wk =   0.0040000
        k(  415) = (   0.0000000   0.0000000   1.7561469), wk =   0.0040000
        k(  416) = (   0.0000000   0.0000000   1.7603803), wk =   0.0040000
        k(  417) = (   0.0000000   0.0000000   1.7646137), wk =   0.0040000
        k(  418) = (   0.0000000   0.0000000   1.7688895), wk =   0.0040000
        k(  419) = (   0.0000000   0.0000000   1.7731229), wk =   0.0040000
        k(  420) = (   0.0000000   0.0000000   1.7773563), wk =   0.0040000
        k(  421) = (   0.0000000   0.0000000   1.7815897), wk =   0.0040000
        k(  422) = (   0.0000000   0.0000000   1.7858231), wk =   0.0040000
        k(  423) = (   0.0000000   0.0000000   1.7900989), wk =   0.0040000
        k(  424) = (   0.0000000   0.0000000   1.7943323), wk =   0.0040000
        k(  425) = (   0.0000000   0.0000000   1.7985657), wk =   0.0040000
        k(  426) = (   0.0000000   0.0000000   1.8027991), wk =   0.0040000
        k(  427) = (   0.0000000   0.0000000   1.8070325), wk =   0.0040000
        k(  428) = (   0.0000000   0.0000000   1.8113083), wk =   0.0040000
        k(  429) = (   0.0000000   0.0000000   1.8155417), wk =   0.0040000
        k(  430) = (   0.0000000   0.0000000   1.8197751), wk =   0.0040000
        k(  431) = (   0.0000000   0.0000000   1.8240085), wk =   0.0040000
        k(  432) = (   0.0000000   0.0000000   1.8282419), wk =   0.0040000
        k(  433) = (   0.0000000   0.0000000   1.8325177), wk =   0.0040000
        k(  434) = (   0.0000000   0.0000000   1.8367511), wk =   0.0040000
        k(  435) = (   0.0000000   0.0000000   1.8409845), wk =   0.0040000
        k(  436) = (   0.0000000   0.0000000   1.8452179), wk =   0.0040000
        k(  437) = (   0.0000000   0.0000000   1.8494513), wk =   0.0040000
        k(  438) = (   0.0000000   0.0000000   1.8537271), wk =   0.0040000
        k(  439) = (   0.0000000   0.0000000   1.8579605), wk =   0.0040000
        k(  440) = (   0.0000000   0.0000000   1.8621939), wk =   0.0040000
        k(  441) = (   0.0000000   0.0000000   1.8664273), wk =   0.0040000
        k(  442) = (   0.0000000   0.0000000   1.8706608), wk =   0.0040000
        k(  443) = (   0.0000000   0.0000000   1.8749365), wk =   0.0040000
        k(  444) = (   0.0000000   0.0000000   1.8791699), wk =   0.0040000
        k(  445) = (   0.0000000   0.0000000   1.8834033), wk =   0.0040000
        k(  446) = (   0.0000000   0.0000000   1.8876367), wk =   0.0040000
        k(  447) = (   0.0000000   0.0000000   1.8918702), wk =   0.0040000
        k(  448) = (   0.0000000   0.0000000   1.8961459), wk =   0.0040000
        k(  449) = (   0.0000000   0.0000000   1.9003793), wk =   0.0040000
        k(  450) = (   0.0000000   0.0000000   1.9046127), wk =   0.0040000
        k(  451) = (   0.0000000   0.0000000   1.9088461), wk =   0.0040000
        k(  452) = (   0.0000000   0.0000000   1.9130796), wk =   0.0040000
        k(  453) = (   0.0000000   0.0000000   1.9173553), wk =   0.0040000
        k(  454) = (   0.0000000   0.0000000   1.9215887), wk =   0.0040000
        k(  455) = (   0.0000000   0.0000000   1.9258221), wk =   0.0040000
        k(  456) = (   0.0000000   0.0000000   1.9300555), wk =   0.0040000
        k(  457) = (   0.0000000   0.0000000   1.9342890), wk =   0.0040000
        k(  458) = (   0.0000000   0.0000000   1.9385647), wk =   0.0040000
        k(  459) = (   0.0000000   0.0000000   1.9427981), wk =   0.0040000
        k(  460) = (   0.0000000   0.0000000   1.9470315), wk =   0.0040000
        k(  461) = (   0.0000000   0.0000000   1.9512649), wk =   0.0040000
        k(  462) = (   0.0000000   0.0000000   1.9554984), wk =   0.0040000
        k(  463) = (   0.0000000   0.0000000   1.9597741), wk =   0.0040000
        k(  464) = (   0.0000000   0.0000000   1.9640075), wk =   0.0040000
        k(  465) = (   0.0000000   0.0000000   1.9682409), wk =   0.0040000
        k(  466) = (   0.0000000   0.0000000   1.9724743), wk =   0.0040000
        k(  467) = (   0.0000000   0.0000000   1.9767078), wk =   0.0040000
        k(  468) = (   0.0000000   0.0000000   1.9809835), wk =   0.0040000
        k(  469) = (   0.0000000   0.0000000   1.9852169), wk =   0.0040000
        k(  470) = (   0.0000000   0.0000000   1.9894503), wk =   0.0040000
        k(  471) = (   0.0000000   0.0000000   1.9936837), wk =   0.0040000
        k(  472) = (   0.0000000   0.0000000   1.9979172), wk =   0.0040000
        k(  473) = (   0.0000000   0.0000000   2.0021929), wk =   0.0040000
        k(  474) = (   0.0000000   0.0000000   2.0064263), wk =   0.0040000
        k(  475) = (   0.0000000   0.0000000   2.0106597), wk =   0.0040000
        k(  476) = (   0.0000000   0.0000000   2.0148931), wk =   0.0040000
        k(  477) = (   0.0000000   0.0000000   2.0191266), wk =   0.0040000
        k(  478) = (   0.0000000   0.0000000   2.0234023), wk =   0.0040000
        k(  479) = (   0.0000000   0.0000000   2.0276357), wk =   0.0040000
        k(  480) = (   0.0000000   0.0000000   2.0318691), wk =   0.0040000
        k(  481) = (   0.0000000   0.0000000   2.0361026), wk =   0.0040000
        k(  482) = (   0.0000000   0.0000000   2.0403360), wk =   0.0040000
        k(  483) = (   0.0000000   0.0000000   2.0446117), wk =   0.0040000
        k(  484) = (   0.0000000   0.0000000   2.0488451), wk =   0.0040000
        k(  485) = (   0.0000000   0.0000000   2.0530785), wk =   0.0040000
        k(  486) = (   0.0000000   0.0000000   2.0573120), wk =   0.0040000
        k(  487) = (   0.0000000   0.0000000   2.0615454), wk =   0.0040000
        k(  488) = (   0.0000000   0.0000000   2.0658211), wk =   0.0040000
        k(  489) = (   0.0000000   0.0000000   2.0700545), wk =   0.0040000
        k(  490) = (   0.0000000   0.0000000   2.0742879), wk =   0.0040000
        k(  491) = (   0.0000000   0.0000000   2.0785214), wk =   0.0040000
        k(  492) = (   0.0000000   0.0000000   2.0827548), wk =   0.0040000
        k(  493) = (   0.0000000   0.0000000   2.0870305), wk =   0.0040000
        k(  494) = (   0.0000000   0.0000000   2.0912639), wk =   0.0040000
        k(  495) = (   0.0000000   0.0000000   2.0954973), wk =   0.0040000
        k(  496) = (   0.0000000   0.0000000   2.0997308), wk =   0.0040000
        k(  497) = (   0.0000000   0.0000000   2.1039642), wk =   0.0040000
        k(  498) = (   0.0000000   0.0000000   2.1082399), wk =   0.0040000
        k(  499) = (   0.0000000   0.0000000   2.1124733), wk =   0.0040000
        k(  500) = (   0.0000000   0.0000000   2.1167067), wk =   0.0040000

                       cryst. coord.
        k(    1) = (   0.0000000   0.0000000   0.0000000), wk =   0.0040000
        k(    2) = (   0.0000000   0.0000000   0.0010000), wk =   0.0040000
        k(    3) = (   0.0000000   0.0000000   0.0020000), wk =   0.0040000
        k(    4) = (   0.0000000   0.0000000   0.0030100), wk =   0.0040000
        k(    5) = (   0.0000000   0.0000000   0.0040100), wk =   0.0040000
        k(    6) = (   0.0000000   0.0000000   0.0050100), wk =   0.0040000
        k(    7) = (   0.0000000   0.0000000   0.0060100), wk =   0.0040000
        k(    8) = (   0.0000000   0.0000000   0.0070100), wk =   0.0040000
        k(    9) = (   0.0000000   0.0000000   0.0080200), wk =   0.0040000
        k(   10) = (   0.0000000   0.0000000   0.0090200), wk =   0.0040000
        k(   11) = (   0.0000000   0.0000000   0.0100200), wk =   0.0040000
        k(   12) = (   0.0000000   0.0000000   0.0110200), wk =   0.0040000
        k(   13) = (   0.0000000   0.0000000   0.0120200), wk =   0.0040000
        k(   14) = (   0.0000000   0.0000000   0.0130300), wk =   0.0040000
        k(   15) = (   0.0000000   0.0000000   0.0140300), wk =   0.0040000
        k(   16) = (   0.0000000   0.0000000   0.0150300), wk =   0.0040000
        k(   17) = (   0.0000000   0.0000000   0.0160300), wk =   0.0040000
        k(   18) = (   0.0000000   0.0000000   0.0170300), wk =   0.0040000
        k(   19) = (   0.0000000   0.0000000   0.0180400), wk =   0.0040000
        k(   20) = (   0.0000000   0.0000000   0.0190400), wk =   0.0040000
        k(   21) = (   0.0000000   0.0000000   0.0200400), wk =   0.0040000
        k(   22) = (   0.0000000   0.0000000   0.0210400), wk =   0.0040000
        k(   23) = (   0.0000000   0.0000000   0.0220400), wk =   0.0040000
        k(   24) = (   0.0000000   0.0000000   0.0230500), wk =   0.0040000
        k(   25) = (   0.0000000   0.0000000   0.0240500), wk =   0.0040000
        k(   26) = (   0.0000000   0.0000000   0.0250500), wk =   0.0040000
        k(   27) = (   0.0000000   0.0000000   0.0260500), wk =   0.0040000
        k(   28) = (   0.0000000   0.0000000   0.0270500), wk =   0.0040000
        k(   29) = (   0.0000000   0.0000000   0.0280600), wk =   0.0040000
        k(   30) = (   0.0000000   0.0000000   0.0290600), wk =   0.0040000
        k(   31) = (   0.0000000   0.0000000   0.0300600), wk =   0.0040000
        k(   32) = (   0.0000000   0.0000000   0.0310600), wk =   0.0040000
        k(   33) = (   0.0000000   0.0000000   0.0320600), wk =   0.0040000
        k(   34) = (   0.0000000   0.0000000   0.0330700), wk =   0.0040000
        k(   35) = (   0.0000000   0.0000000   0.0340700), wk =   0.0040000
        k(   36) = (   0.0000000   0.0000000   0.0350700), wk =   0.0040000
        k(   37) = (   0.0000000   0.0000000   0.0360700), wk =   0.0040000
        k(   38) = (   0.0000000   0.0000000   0.0370700), wk =   0.0040000
        k(   39) = (   0.0000000   0.0000000   0.0380800), wk =   0.0040000
        k(   40) = (   0.0000000   0.0000000   0.0390800), wk =   0.0040000
        k(   41) = (   0.0000000   0.0000000   0.0400800), wk =   0.0040000
        k(   42) = (   0.0000000   0.0000000   0.0410800), wk =   0.0040000
        k(   43) = (   0.0000000   0.0000000   0.0420800), wk =   0.0040000
        k(   44) = (   0.0000000   0.0000000   0.0430900), wk =   0.0040000
        k(   45) = (   0.0000000   0.0000000   0.0440900), wk =   0.0040000
        k(   46) = (   0.0000000   0.0000000   0.0450900), wk =   0.0040000
        k(   47) = (   0.0000000   0.0000000   0.0460900), wk =   0.0040000
        k(   48) = (   0.0000000   0.0000000   0.0470900), wk =   0.0040000
        k(   49) = (   0.0000000   0.0000000   0.0481000), wk =   0.0040000
        k(   50) = (   0.0000000   0.0000000   0.0491000), wk =   0.0040000
        k(   51) = (   0.0000000   0.0000000   0.0501000), wk =   0.0040000
        k(   52) = (   0.0000000   0.0000000   0.0511000), wk =   0.0040000
        k(   53) = (   0.0000000   0.0000000   0.0521000), wk =   0.0040000
        k(   54) = (   0.0000000   0.0000000   0.0531100), wk =   0.0040000
        k(   55) = (   0.0000000   0.0000000   0.0541100), wk =   0.0040000
        k(   56) = (   0.0000000   0.0000000   0.0551100), wk =   0.0040000
        k(   57) = (   0.0000000   0.0000000   0.0561100), wk =   0.0040000
        k(   58) = (   0.0000000   0.0000000   0.0571100), wk =   0.0040000
        k(   59) = (   0.0000000   0.0000000   0.0581200), wk =   0.0040000
        k(   60) = (   0.0000000   0.0000000   0.0591200), wk =   0.0040000
        k(   61) = (   0.0000000   0.0000000   0.0601200), wk =   0.0040000
        k(   62) = (   0.0000000   0.0000000   0.0611200), wk =   0.0040000
        k(   63) = (   0.0000000   0.0000000   0.0621200), wk =   0.0040000
        k(   64) = (   0.0000000   0.0000000   0.0631300), wk =   0.0040000
        k(   65) = (   0.0000000   0.0000000   0.0641300), wk =   0.0040000
        k(   66) = (   0.0000000   0.0000000   0.0651300), wk =   0.0040000
        k(   67) = (   0.0000000   0.0000000   0.0661300), wk =   0.0040000
        k(   68) = (   0.0000000   0.0000000   0.0671300), wk =   0.0040000
        k(   69) = (   0.0000000   0.0000000   0.0681400), wk =   0.0040000
        k(   70) = (   0.0000000   0.0000000   0.0691400), wk =   0.0040000
        k(   71) = (   0.0000000   0.0000000   0.0701400), wk =   0.0040000
        k(   72) = (   0.0000000   0.0000000   0.0711400), wk =   0.0040000
        k(   73) = (   0.0000000   0.0000000   0.0721400), wk =   0.0040000
        k(   74) = (   0.0000000   0.0000000   0.0731500), wk =   0.0040000
        k(   75) = (   0.0000000   0.0000000   0.0741500), wk =   0.0040000
        k(   76) = (   0.0000000   0.0000000   0.0751500), wk =   0.0040000
        k(   77) = (   0.0000000   0.0000000   0.0761500), wk =   0.0040000
        k(   78) = (   0.0000000   0.0000000   0.0771500), wk =   0.0040000
        k(   79) = (   0.0000000   0.0000000   0.0781600), wk =   0.0040000
        k(   80) = (   0.0000000   0.0000000   0.0791600), wk =   0.0040000
        k(   81) = (   0.0000000   0.0000000   0.0801600), wk =   0.0040000
        k(   82) = (   0.0000000   0.0000000   0.0811600), wk =   0.0040000
        k(   83) = (   0.0000000   0.0000000   0.0821600), wk =   0.0040000
        k(   84) = (   0.0000000   0.0000000   0.0831700), wk =   0.0040000
        k(   85) = (   0.0000000   0.0000000   0.0841700), wk =   0.0040000
        k(   86) = (   0.0000000   0.0000000   0.0851700), wk =   0.0040000
        k(   87) = (   0.0000000   0.0000000   0.0861700), wk =   0.0040000
        k(   88) = (   0.0000000   0.0000000   0.0871700), wk =   0.0040000
        k(   89) = (   0.0000000   0.0000000   0.0881800), wk =   0.0040000
        k(   90) = (   0.0000000   0.0000000   0.0891800), wk =   0.0040000
        k(   91) = (   0.0000000   0.0000000   0.0901800), wk =   0.0040000
        k(   92) = (   0.0000000   0.0000000   0.0911800), wk =   0.0040000
        k(   93) = (   0.0000000   0.0000000   0.0921800), wk =   0.0040000
        k(   94) = (   0.0000000   0.0000000   0.0931900), wk =   0.0040000
        k(   95) = (   0.0000000   0.0000000   0.0941900), wk =   0.0040000
        k(   96) = (   0.0000000   0.0000000   0.0951900), wk =   0.0040000
        k(   97) = (   0.0000000   0.0000000   0.0961900), wk =   0.0040000
        k(   98) = (   0.0000000   0.0000000   0.0971900), wk =   0.0040000
        k(   99) = (   0.0000000   0.0000000   0.0982000), wk =   0.0040000
        k(  100) = (   0.0000000   0.0000000   0.0992000), wk =   0.0040000
        k(  101) = (   0.0000000   0.0000000   0.1002000), wk =   0.0040000
        k(  102) = (   0.0000000   0.0000000   0.1012000), wk =   0.0040000
        k(  103) = (   0.0000000   0.0000000   0.1022000), wk =   0.0040000
        k(  104) = (   0.0000000   0.0000000   0.1032100), wk =   0.0040000
        k(  105) = (   0.0000000   0.0000000   0.1042100), wk =   0.0040000
        k(  106) = (   0.0000000   0.0000000   0.1052100), wk =   0.0040000
        k(  107) = (   0.0000000   0.0000000   0.1062100), wk =   0.0040000
        k(  108) = (   0.0000000   0.0000000   0.1072100), wk =   0.0040000
        k(  109) = (   0.0000000   0.0000000   0.1082200), wk =   0.0040000
        k(  110) = (   0.0000000   0.0000000   0.1092200), wk =   0.0040000
        k(  111) = (   0.0000000   0.0000000   0.1102200), wk =   0.0040000
        k(  112) = (   0.0000000   0.0000000   0.1112200), wk =   0.0040000
        k(  113) = (   0.0000000   0.0000000   0.1122200), wk =   0.0040000
        k(  114) = (   0.0000000   0.0000000   0.1132300), wk =   0.0040000
        k(  115) = (   0.0000000   0.0000000   0.1142300), wk =   0.0040000
        k(  116) = (   0.0000000   0.0000000   0.1152300), wk =   0.0040000
        k(  117) = (   0.0000000   0.0000000   0.1162300), wk =   0.0040000
        k(  118) = (   0.0000000   0.0000000   0.1172300), wk =   0.0040000
        k(  119) = (   0.0000000   0.0000000   0.1182400), wk =   0.0040000
        k(  120) = (   0.0000000   0.0000000   0.1192400), wk =   0.0040000
        k(  121) = (   0.0000000   0.0000000   0.1202400), wk =   0.0040000
        k(  122) = (   0.0000000   0.0000000   0.1212400), wk =   0.0040000
        k(  123) = (   0.0000000   0.0000000   0.1222400), wk =   0.0040000
        k(  124) = (   0.0000000   0.0000000   0.1232500), wk =   0.0040000
        k(  125) = (   0.0000000   0.0000000   0.1242500), wk =   0.0040000
        k(  126) = (   0.0000000   0.0000000   0.1252500), wk =   0.0040000
        k(  127) = (   0.0000000   0.0000000   0.1262500), wk =   0.0040000
        k(  128) = (   0.0000000   0.0000000   0.1272500), wk =   0.0040000
        k(  129) = (   0.0000000   0.0000000   0.1282600), wk =   0.0040000
        k(  130) = (   0.0000000   0.0000000   0.1292600), wk =   0.0040000
        k(  131) = (   0.0000000   0.0000000   0.1302600), wk =   0.0040000
        k(  132) = (   0.0000000   0.0000000   0.1312600), wk =   0.0040000
        k(  133) = (   0.0000000   0.0000000   0.1322600), wk =   0.0040000
        k(  134) = (   0.0000000   0.0000000   0.1332700), wk =   0.0040000
        k(  135) = (   0.0000000   0.0000000   0.1342700), wk =   0.0040000
        k(  136) = (   0.0000000   0.0000000   0.1352700), wk =   0.0040000
        k(  137) = (   0.0000000   0.0000000   0.1362700), wk =   0.0040000
        k(  138) = (   0.0000000   0.0000000   0.1372700), wk =   0.0040000
        k(  139) = (   0.0000000   0.0000000   0.1382800), wk =   0.0040000
        k(  140) = (   0.0000000   0.0000000   0.1392800), wk =   0.0040000
        k(  141) = (   0.0000000   0.0000000   0.1402800), wk =   0.0040000
        k(  142) = (   0.0000000   0.0000000   0.1412800), wk =   0.0040000
        k(  143) = (   0.0000000   0.0000000   0.1422800), wk =   0.0040000
        k(  144) = (   0.0000000   0.0000000   0.1432900), wk =   0.0040000
        k(  145) = (   0.0000000   0.0000000   0.1442900), wk =   0.0040000
        k(  146) = (   0.0000000   0.0000000   0.1452900), wk =   0.0040000
        k(  147) = (   0.0000000   0.0000000   0.1462900), wk =   0.0040000
        k(  148) = (   0.0000000   0.0000000   0.1472900), wk =   0.0040000
        k(  149) = (   0.0000000   0.0000000   0.1483000), wk =   0.0040000
        k(  150) = (   0.0000000   0.0000000   0.1493000), wk =   0.0040000
        k(  151) = (   0.0000000   0.0000000   0.1503000), wk =   0.0040000
        k(  152) = (   0.0000000   0.0000000   0.1513000), wk =   0.0040000
        k(  153) = (   0.0000000   0.0000000   0.1523000), wk =   0.0040000
        k(  154) = (   0.0000000   0.0000000   0.1533100), wk =   0.0040000
        k(  155) = (   0.0000000   0.0000000   0.1543100), wk =   0.0040000
        k(  156) = (   0.0000000   0.0000000   0.1553100), wk =   0.0040000
        k(  157) = (   0.0000000   0.0000000   0.1563100), wk =   0.0040000
        k(  158) = (   0.0000000   0.0000000   0.1573100), wk =   0.0040000
        k(  159) = (   0.0000000   0.0000000   0.1583200), wk =   0.0040000
        k(  160) = (   0.0000000   0.0000000   0.1593200), wk =   0.0040000
        k(  161) = (   0.0000000   0.0000000   0.1603200), wk =   0.0040000
        k(  162) = (   0.0000000   0.0000000   0.1613200), wk =   0.0040000
        k(  163) = (   0.0000000   0.0000000   0.1623200), wk =   0.0040000
        k(  164) = (   0.0000000   0.0000000   0.1633300), wk =   0.0040000
        k(  165) = (   0.0000000   0.0000000   0.1643300), wk =   0.0040000
        k(  166) = (   0.0000000   0.0000000   0.1653300), wk =   0.0040000
        k(  167) = (   0.0000000   0.0000000   0.1663300), wk =   0.0040000
        k(  168) = (   0.0000000   0.0000000   0.1673300), wk =   0.0040000
        k(  169) = (   0.0000000   0.0000000   0.1683400), wk =   0.0040000
        k(  170) = (   0.0000000   0.0000000   0.1693400), wk =   0.0040000
        k(  171) = (   0.0000000   0.0000000   0.1703400), wk =   0.0040000
        k(  172) = (   0.0000000   0.0000000   0.1713400), wk =   0.0040000
        k(  173) = (   0.0000000   0.0000000   0.1723400), wk =   0.0040000
        k(  174) = (   0.0000000   0.0000000   0.1733500), wk =   0.0040000
        k(  175) = (   0.0000000   0.0000000   0.1743500), wk =   0.0040000
        k(  176) = (   0.0000000   0.0000000   0.1753500), wk =   0.0040000
        k(  177) = (   0.0000000   0.0000000   0.1763500), wk =   0.0040000
        k(  178) = (   0.0000000   0.0000000   0.1773500), wk =   0.0040000
        k(  179) = (   0.0000000   0.0000000   0.1783600), wk =   0.0040000
        k(  180) = (   0.0000000   0.0000000   0.1793600), wk =   0.0040000
        k(  181) = (   0.0000000   0.0000000   0.1803600), wk =   0.0040000
        k(  182) = (   0.0000000   0.0000000   0.1813600), wk =   0.0040000
        k(  183) = (   0.0000000   0.0000000   0.1823600), wk =   0.0040000
        k(  184) = (   0.0000000   0.0000000   0.1833700), wk =   0.0040000
        k(  185) = (   0.0000000   0.0000000   0.1843700), wk =   0.0040000
        k(  186) = (   0.0000000   0.0000000   0.1853700), wk =   0.0040000
        k(  187) = (   0.0000000   0.0000000   0.1863700), wk =   0.0040000
        k(  188) = (   0.0000000   0.0000000   0.1873700), wk =   0.0040000
        k(  189) = (   0.0000000   0.0000000   0.1883800), wk =   0.0040000
        k(  190) = (   0.0000000   0.0000000   0.1893800), wk =   0.0040000
        k(  191) = (   0.0000000   0.0000000   0.1903800), wk =   0.0040000
        k(  192) = (   0.0000000   0.0000000   0.1913800), wk =   0.0040000
        k(  193) = (   0.0000000   0.0000000   0.1923800), wk =   0.0040000
        k(  194) = (   0.0000000   0.0000000   0.1933900), wk =   0.0040000
        k(  195) = (   0.0000000   0.0000000   0.1943900), wk =   0.0040000
        k(  196) = (   0.0000000   0.0000000   0.1953900), wk =   0.0040000
        k(  197) = (   0.0000000   0.0000000   0.1963900), wk =   0.0040000
        k(  198) = (   0.0000000   0.0000000   0.1973900), wk =   0.0040000
        k(  199) = (   0.0000000   0.0000000   0.1984000), wk =   0.0040000
        k(  200) = (   0.0000000   0.0000000   0.1994000), wk =   0.0040000
        k(  201) = (   0.0000000   0.0000000   0.2004000), wk =   0.0040000
        k(  202) = (   0.0000000   0.0000000   0.2014000), wk =   0.0040000
        k(  203) = (   0.0000000   0.0000000   0.2024000), wk =   0.0040000
        k(  204) = (   0.0000000   0.0000000   0.2034100), wk =   0.0040000
        k(  205) = (   0.0000000   0.0000000   0.2044100), wk =   0.0040000
        k(  206) = (   0.0000000   0.0000000   0.2054100), wk =   0.0040000
        k(  207) = (   0.0000000   0.0000000   0.2064100), wk =   0.0040000
        k(  208) = (   0.0000000   0.0000000   0.2074100), wk =   0.0040000
        k(  209) = (   0.0000000   0.0000000   0.2084200), wk =   0.0040000
        k(  210) = (   0.0000000   0.0000000   0.2094200), wk =   0.0040000
        k(  211) = (   0.0000000   0.0000000   0.2104200), wk =   0.0040000
        k(  212) = (   0.0000000   0.0000000   0.2114200), wk =   0.0040000
        k(  213) = (   0.0000000   0.0000000   0.2124200), wk =   0.0040000
        k(  214) = (   0.0000000   0.0000000   0.2134300), wk =   0.0040000
        k(  215) = (   0.0000000   0.0000000   0.2144300), wk =   0.0040000
        k(  216) = (   0.0000000   0.0000000   0.2154300), wk =   0.0040000
        k(  217) = (   0.0000000   0.0000000   0.2164300), wk =   0.0040000
        k(  218) = (   0.0000000   0.0000000   0.2174300), wk =   0.0040000
        k(  219) = (   0.0000000   0.0000000   0.2184400), wk =   0.0040000
        k(  220) = (   0.0000000   0.0000000   0.2194400), wk =   0.0040000
        k(  221) = (   0.0000000   0.0000000   0.2204400), wk =   0.0040000
        k(  222) = (   0.0000000   0.0000000   0.2214400), wk =   0.0040000
        k(  223) = (   0.0000000   0.0000000   0.2224400), wk =   0.0040000
        k(  224) = (   0.0000000   0.0000000   0.2234500), wk =   0.0040000
        k(  225) = (   0.0000000   0.0000000   0.2244500), wk =   0.0040000
        k(  226) = (   0.0000000   0.0000000   0.2254500), wk =   0.0040000
        k(  227) = (   0.0000000   0.0000000   0.2264500), wk =   0.0040000
        k(  228) = (   0.0000000   0.0000000   0.2274500), wk =   0.0040000
        k(  229) = (   0.0000000   0.0000000   0.2284600), wk =   0.0040000
        k(  230) = (   0.0000000   0.0000000   0.2294600), wk =   0.0040000
        k(  231) = (   0.0000000   0.0000000   0.2304600), wk =   0.0040000
        k(  232) = (   0.0000000   0.0000000   0.2314600), wk =   0.0040000
        k(  233) = (   0.0000000   0.0000000   0.2324600), wk =   0.0040000
        k(  234) = (   0.0000000   0.0000000   0.2334700), wk =   0.0040000
        k(  235) = (   0.0000000   0.0000000   0.2344700), wk =   0.0040000
        k(  236) = (   0.0000000   0.0000000   0.2354700), wk =   0.0040000
        k(  237) = (   0.0000000   0.0000000   0.2364700), wk =   0.0040000
        k(  238) = (   0.0000000   0.0000000   0.2374700), wk =   0.0040000
        k(  239) = (   0.0000000   0.0000000   0.2384800), wk =   0.0040000
        k(  240) = (   0.0000000   0.0000000   0.2394800), wk =   0.0040000
        k(  241) = (   0.0000000   0.0000000   0.2404800), wk =   0.0040000
        k(  242) = (   0.0000000   0.0000000   0.2414800), wk =   0.0040000
        k(  243) = (   0.0000000   0.0000000   0.2424800), wk =   0.0040000
        k(  244) = (   0.0000000   0.0000000   0.2434900), wk =   0.0040000
        k(  245) = (   0.0000000   0.0000000   0.2444900), wk =   0.0040000
        k(  246) = (   0.0000000   0.0000000   0.2454900), wk =   0.0040000
        k(  247) = (   0.0000000   0.0000000   0.2464900), wk =   0.0040000
        k(  248) = (   0.0000000   0.0000000   0.2474900), wk =   0.0040000
        k(  249) = (   0.0000000   0.0000000   0.2485000), wk =   0.0040000
        k(  250) = (   0.0000000   0.0000000   0.2495000), wk =   0.0040000
        k(  251) = (   0.0000000   0.0000000   0.2505000), wk =   0.0040000
        k(  252) = (   0.0000000   0.0000000   0.2515000), wk =   0.0040000
        k(  253) = (   0.0000000   0.0000000   0.2525100), wk =   0.0040000
        k(  254) = (   0.0000000   0.0000000   0.2535100), wk =   0.0040000
        k(  255) = (   0.0000000   0.0000000   0.2545100), wk =   0.0040000
        k(  256) = (   0.0000000   0.0000000   0.2555100), wk =   0.0040000
        k(  257) = (   0.0000000   0.0000000   0.2565100), wk =   0.0040000
        k(  258) = (   0.0000000   0.0000000   0.2575200), wk =   0.0040000
        k(  259) = (   0.0000000   0.0000000   0.2585200), wk =   0.0040000
        k(  260) = (   0.0000000   0.0000000   0.2595200), wk =   0.0040000
        k(  261) = (   0.0000000   0.0000000   0.2605200), wk =   0.0040000
        k(  262) = (   0.0000000   0.0000000   0.2615200), wk =   0.0040000
        k(  263) = (   0.0000000   0.0000000   0.2625300), wk =   0.0040000
        k(  264) = (   0.0000000   0.0000000   0.2635300), wk =   0.0040000
        k(  265) = (   0.0000000   0.0000000   0.2645300), wk =   0.0040000
        k(  266) = (   0.0000000   0.0000000   0.2655300), wk =   0.0040000
        k(  267) = (   0.0000000   0.0000000   0.2665300), wk =   0.0040000
        k(  268) = (   0.0000000   0.0000000   0.2675400), wk =   0.0040000
        k(  269) = (   0.0000000   0.0000000   0.2685400), wk =   0.0040000
        k(  270) = (   0.0000000   0.0000000   0.2695400), wk =   0.0040000
        k(  271) = (   0.0000000   0.0000000   0.2705400), wk =   0.0040000
        k(  272) = (   0.0000000   0.0000000   0.2715400), wk =   0.0040000
        k(  273) = (   0.0000000   0.0000000   0.2725500), wk =   0.0040000
        k(  274) = (   0.0000000   0.0000000   0.2735500), wk =   0.0040000
        k(  275) = (   0.0000000   0.0000000   0.2745500), wk =   0.0040000
        k(  276) = (   0.0000000   0.0000000   0.2755500), wk =   0.0040000
        k(  277) = (   0.0000000   0.0000000   0.2765500), wk =   0.0040000
        k(  278) = (   0.0000000   0.0000000   0.2775600), wk =   0.0040000
        k(  279) = (   0.0000000   0.0000000   0.2785600), wk =   0.0040000
        k(  280) = (   0.0000000   0.0000000   0.2795600), wk =   0.0040000
        k(  281) = (   0.0000000   0.0000000   0.2805600), wk =   0.0040000
        k(  282) = (   0.0000000   0.0000000   0.2815600), wk =   0.0040000
        k(  283) = (   0.0000000   0.0000000   0.2825700), wk =   0.0040000
        k(  284) = (   0.0000000   0.0000000   0.2835700), wk =   0.0040000
        k(  285) = (   0.0000000   0.0000000   0.2845700), wk =   0.0040000
        k(  286) = (   0.0000000   0.0000000   0.2855700), wk =   0.0040000
        k(  287) = (   0.0000000   0.0000000   0.2865700), wk =   0.0040000
        k(  288) = (   0.0000000   0.0000000   0.2875800), wk =   0.0040000
        k(  289) = (   0.0000000   0.0000000   0.2885800), wk =   0.0040000
        k(  290) = (   0.0000000   0.0000000   0.2895800), wk =   0.0040000
        k(  291) = (   0.0000000   0.0000000   0.2905800), wk =   0.0040000
        k(  292) = (   0.0000000   0.0000000   0.2915800), wk =   0.0040000
        k(  293) = (   0.0000000   0.0000000   0.2925900), wk =   0.0040000
        k(  294) = (   0.0000000   0.0000000   0.2935900), wk =   0.0040000
        k(  295) = (   0.0000000   0.0000000   0.2945900), wk =   0.0040000
        k(  296) = (   0.0000000   0.0000000   0.2955900), wk =   0.0040000
        k(  297) = (   0.0000000   0.0000000   0.2965900), wk =   0.0040000
        k(  298) = (   0.0000000   0.0000000   0.2976000), wk =   0.0040000
        k(  299) = (   0.0000000   0.0000000   0.2986000), wk =   0.0040000
        k(  300) = (   0.0000000   0.0000000   0.2996000), wk =   0.0040000
        k(  301) = (   0.0000000   0.0000000   0.3006000), wk =   0.0040000
        k(  302) = (   0.0000000   0.0000000   0.3016000), wk =   0.0040000
        k(  303) = (   0.0000000   0.0000000   0.3026100), wk =   0.0040000
        k(  304) = (   0.0000000   0.0000000   0.3036100), wk =   0.0040000
        k(  305) = (   0.0000000   0.0000000   0.3046100), wk =   0.0040000
        k(  306) = (   0.0000000   0.0000000   0.3056100), wk =   0.0040000
        k(  307) = (   0.0000000   0.0000000   0.3066100), wk =   0.0040000
        k(  308) = (   0.0000000   0.0000000   0.3076200), wk =   0.0040000
        k(  309) = (   0.0000000   0.0000000   0.3086200), wk =   0.0040000
        k(  310) = (   0.0000000   0.0000000   0.3096200), wk =   0.0040000
        k(  311) = (   0.0000000   0.0000000   0.3106200), wk =   0.0040000
        k(  312) = (   0.0000000   0.0000000   0.3116200), wk =   0.0040000
        k(  313) = (   0.0000000   0.0000000   0.3126300), wk =   0.0040000
        k(  314) = (   0.0000000   0.0000000   0.3136300), wk =   0.0040000
        k(  315) = (   0.0000000   0.0000000   0.3146300), wk =   0.0040000
        k(  316) = (   0.0000000   0.0000000   0.3156300), wk =   0.0040000
        k(  317) = (   0.0000000   0.0000000   0.3166300), wk =   0.0040000
        k(  318) = (   0.0000000   0.0000000   0.3176400), wk =   0.0040000
        k(  319) = (   0.0000000   0.0000000   0.3186400), wk =   0.0040000
        k(  320) = (   0.0000000   0.0000000   0.3196400), wk =   0.0040000
        k(  321) = (   0.0000000   0.0000000   0.3206400), wk =   0.0040000
        k(  322) = (   0.0000000   0.0000000   0.3216400), wk =   0.0040000
        k(  323) = (   0.0000000   0.0000000   0.3226500), wk =   0.0040000
        k(  324) = (   0.0000000   0.0000000   0.3236500), wk =   0.0040000
        k(  325) = (   0.0000000   0.0000000   0.3246500), wk =   0.0040000
        k(  326) = (   0.0000000   0.0000000   0.3256500), wk =   0.0040000
        k(  327) = (   0.0000000   0.0000000   0.3266500), wk =   0.0040000
        k(  328) = (   0.0000000   0.0000000   0.3276600), wk =   0.0040000
        k(  329) = (   0.0000000   0.0000000   0.3286600), wk =   0.0040000
        k(  330) = (   0.0000000   0.0000000   0.3296600), wk =   0.0040000
        k(  331) = (   0.0000000   0.0000000   0.3306600), wk =   0.0040000
        k(  332) = (   0.0000000   0.0000000   0.3316600), wk =   0.0040000
        k(  333) = (   0.0000000   0.0000000   0.3326700), wk =   0.0040000
        k(  334) = (   0.0000000   0.0000000   0.3336700), wk =   0.0040000
        k(  335) = (   0.0000000   0.0000000   0.3346700), wk =   0.0040000
        k(  336) = (   0.0000000   0.0000000   0.3356700), wk =   0.0040000
        k(  337) = (   0.0000000   0.0000000   0.3366700), wk =   0.0040000
        k(  338) = (   0.0000000   0.0000000   0.3376800), wk =   0.0040000
        k(  339) = (   0.0000000   0.0000000   0.3386800), wk =   0.0040000
        k(  340) = (   0.0000000   0.0000000   0.3396800), wk =   0.0040000
        k(  341) = (   0.0000000   0.0000000   0.3406800), wk =   0.0040000
        k(  342) = (   0.0000000   0.0000000   0.3416800), wk =   0.0040000
        k(  343) = (   0.0000000   0.0000000   0.3426900), wk =   0.0040000
        k(  344) = (   0.0000000   0.0000000   0.3436900), wk =   0.0040000
        k(  345) = (   0.0000000   0.0000000   0.3446900), wk =   0.0040000
        k(  346) = (   0.0000000   0.0000000   0.3456900), wk =   0.0040000
        k(  347) = (   0.0000000   0.0000000   0.3466900), wk =   0.0040000
        k(  348) = (   0.0000000   0.0000000   0.3477000), wk =   0.0040000
        k(  349) = (   0.0000000   0.0000000   0.3487000), wk =   0.0040000
        k(  350) = (   0.0000000   0.0000000   0.3497000), wk =   0.0040000
        k(  351) = (   0.0000000   0.0000000   0.3507000), wk =   0.0040000
        k(  352) = (   0.0000000   0.0000000   0.3517000), wk =   0.0040000
        k(  353) = (   0.0000000   0.0000000   0.3527100), wk =   0.0040000
        k(  354) = (   0.0000000   0.0000000   0.3537100), wk =   0.0040000
        k(  355) = (   0.0000000   0.0000000   0.3547100), wk =   0.0040000
        k(  356) = (   0.0000000   0.0000000   0.3557100), wk =   0.0040000
        k(  357) = (   0.0000000   0.0000000   0.3567100), wk =   0.0040000
        k(  358) = (   0.0000000   0.0000000   0.3577200), wk =   0.0040000
        k(  359) = (   0.0000000   0.0000000   0.3587200), wk =   0.0040000
        k(  360) = (   0.0000000   0.0000000   0.3597200), wk =   0.0040000
        k(  361) = (   0.0000000   0.0000000   0.3607200), wk =   0.0040000
        k(  362) = (   0.0000000   0.0000000   0.3617200), wk =   0.0040000
        k(  363) = (   0.0000000   0.0000000   0.3627300), wk =   0.0040000
        k(  364) = (   0.0000000   0.0000000   0.3637300), wk =   0.0040000
        k(  365) = (   0.0000000   0.0000000   0.3647300), wk =   0.0040000
        k(  366) = (   0.0000000   0.0000000   0.3657300), wk =   0.0040000
        k(  367) = (   0.0000000   0.0000000   0.3667300), wk =   0.0040000
        k(  368) = (   0.0000000   0.0000000   0.3677400), wk =   0.0040000
        k(  369) = (   0.0000000   0.0000000   0.3687400), wk =   0.0040000
        k(  370) = (   0.0000000   0.0000000   0.3697400), wk =   0.0040000
        k(  371) = (   0.0000000   0.0000000   0.3707400), wk =   0.0040000
        k(  372) = (   0.0000000   0.0000000   0.3717400), wk =   0.0040000
        k(  373) = (   0.0000000   0.0000000   0.3727500), wk =   0.0040000
        k(  374) = (   0.0000000   0.0000000   0.3737500), wk =   0.0040000
        k(  375) = (   0.0000000   0.0000000   0.3747500), wk =   0.0040000
        k(  376) = (   0.0000000   0.0000000   0.3757500), wk =   0.0040000
        k(  377) = (   0.0000000   0.0000000   0.3767500), wk =   0.0040000
        k(  378) = (   0.0000000   0.0000000   0.3777600), wk =   0.0040000
        k(  379) = (   0.0000000   0.0000000   0.3787600), wk =   0.0040000
        k(  380) = (   0.0000000   0.0000000   0.3797600), wk =   0.0040000
        k(  381) = (   0.0000000   0.0000000   0.3807600), wk =   0.0040000
        k(  382) = (   0.0000000   0.0000000   0.3817600), wk =   0.0040000
        k(  383) = (   0.0000000   0.0000000   0.3827700), wk =   0.0040000
        k(  384) = (   0.0000000   0.0000000   0.3837700), wk =   0.0040000
        k(  385) = (   0.0000000   0.0000000   0.3847700), wk =   0.0040000
        k(  386) = (   0.0000000   0.0000000   0.3857700), wk =   0.0040000
        k(  387) = (   0.0000000   0.0000000   0.3867700), wk =   0.0040000
        k(  388) = (   0.0000000   0.0000000   0.3877800), wk =   0.0040000
        k(  389) = (   0.0000000   0.0000000   0.3887800), wk =   0.0040000
        k(  390) = (   0.0000000   0.0000000   0.3897800), wk =   0.0040000
        k(  391) = (   0.0000000   0.0000000   0.3907800), wk =   0.0040000
        k(  392) = (   0.0000000   0.0000000   0.3917800), wk =   0.0040000
        k(  393) = (   0.0000000   0.0000000   0.3927900), wk =   0.0040000
        k(  394) = (   0.0000000   0.0000000   0.3937900), wk =   0.0040000
        k(  395) = (   0.0000000   0.0000000   0.3947900), wk =   0.0040000
        k(  396) = (   0.0000000   0.0000000   0.3957900), wk =   0.0040000
        k(  397) = (   0.0000000   0.0000000   0.3967900), wk =   0.0040000
        k(  398) = (   0.0000000   0.0000000   0.3978000), wk =   0.0040000
        k(  399) = (   0.0000000   0.0000000   0.3988000), wk =   0.0040000
        k(  400) = (   0.0000000   0.0000000   0.3998000), wk =   0.0040000
        k(  401) = (   0.0000000   0.0000000   0.4008000), wk =   0.0040000
        k(  402) = (   0.0000000   0.0000000   0.4018000), wk =   0.0040000
        k(  403) = (   0.0000000   0.0000000   0.4028100), wk =   0.0040000
        k(  404) = (   0.0000000   0.0000000   0.4038100), wk =   0.0040000
        k(  405) = (   0.0000000   0.0000000   0.4048100), wk =   0.0040000
        k(  406) = (   0.0000000   0.0000000   0.4058100), wk =   0.0040000
        k(  407) = (   0.0000000   0.0000000   0.4068100), wk =   0.0040000
        k(  408) = (   0.0000000   0.0000000   0.4078200), wk =   0.0040000
        k(  409) = (   0.0000000   0.0000000   0.4088200), wk =   0.0040000
        k(  410) = (   0.0000000   0.0000000   0.4098200), wk =   0.0040000
        k(  411) = (   0.0000000   0.0000000   0.4108200), wk =   0.0040000
        k(  412) = (   0.0000000   0.0000000   0.4118200), wk =   0.0040000
        k(  413) = (   0.0000000   0.0000000   0.4128300), wk =   0.0040000
        k(  414) = (   0.0000000   0.0000000   0.4138300), wk =   0.0040000
        k(  415) = (   0.0000000   0.0000000   0.4148300), wk =   0.0040000
        k(  416) = (   0.0000000   0.0000000   0.4158300), wk =   0.0040000
        k(  417) = (   0.0000000   0.0000000   0.4168300), wk =   0.0040000
        k(  418) = (   0.0000000   0.0000000   0.4178400), wk =   0.0040000
        k(  419) = (   0.0000000   0.0000000   0.4188400), wk =   0.0040000
        k(  420) = (   0.0000000   0.0000000   0.4198400), wk =   0.0040000
        k(  421) = (   0.0000000   0.0000000   0.4208400), wk =   0.0040000
        k(  422) = (   0.0000000   0.0000000   0.4218400), wk =   0.0040000
        k(  423) = (   0.0000000   0.0000000   0.4228500), wk =   0.0040000
        k(  424) = (   0.0000000   0.0000000   0.4238500), wk =   0.0040000
        k(  425) = (   0.0000000   0.0000000   0.4248500), wk =   0.0040000
        k(  426) = (   0.0000000   0.0000000   0.4258500), wk =   0.0040000
        k(  427) = (   0.0000000   0.0000000   0.4268500), wk =   0.0040000
        k(  428) = (   0.0000000   0.0000000   0.4278600), wk =   0.0040000
        k(  429) = (   0.0000000   0.0000000   0.4288600), wk =   0.0040000
        k(  430) = (   0.0000000   0.0000000   0.4298600), wk =   0.0040000
        k(  431) = (   0.0000000   0.0000000   0.4308600), wk =   0.0040000
        k(  432) = (   0.0000000   0.0000000   0.4318600), wk =   0.0040000
        k(  433) = (   0.0000000   0.0000000   0.4328700), wk =   0.0040000
        k(  434) = (   0.0000000   0.0000000   0.4338700), wk =   0.0040000
        k(  435) = (   0.0000000   0.0000000   0.4348700), wk =   0.0040000
        k(  436) = (   0.0000000   0.0000000   0.4358700), wk =   0.0040000
        k(  437) = (   0.0000000   0.0000000   0.4368700), wk =   0.0040000
        k(  438) = (   0.0000000   0.0000000   0.4378800), wk =   0.0040000
        k(  439) = (   0.0000000   0.0000000   0.4388800), wk =   0.0040000
        k(  440) = (   0.0000000   0.0000000   0.4398800), wk =   0.0040000
        k(  441) = (   0.0000000   0.0000000   0.4408800), wk =   0.0040000
        k(  442) = (   0.0000000   0.0000000   0.4418800), wk =   0.0040000
        k(  443) = (   0.0000000   0.0000000   0.4428900), wk =   0.0040000
        k(  444) = (   0.0000000   0.0000000   0.4438900), wk =   0.0040000
        k(  445) = (   0.0000000   0.0000000   0.4448900), wk =   0.0040000
        k(  446) = (   0.0000000   0.0000000   0.4458900), wk =   0.0040000
        k(  447) = (   0.0000000   0.0000000   0.4468900), wk =   0.0040000
        k(  448) = (   0.0000000   0.0000000   0.4479000), wk =   0.0040000
        k(  449) = (   0.0000000   0.0000000   0.4489000), wk =   0.0040000
        k(  450) = (   0.0000000   0.0000000   0.4499000), wk =   0.0040000
        k(  451) = (   0.0000000   0.0000000   0.4509000), wk =   0.0040000
        k(  452) = (   0.0000000   0.0000000   0.4519000), wk =   0.0040000
        k(  453) = (   0.0000000   0.0000000   0.4529100), wk =   0.0040000
        k(  454) = (   0.0000000   0.0000000   0.4539100), wk =   0.0040000
        k(  455) = (   0.0000000   0.0000000   0.4549100), wk =   0.0040000
        k(  456) = (   0.0000000   0.0000000   0.4559100), wk =   0.0040000
        k(  457) = (   0.0000000   0.0000000   0.4569100), wk =   0.0040000
        k(  458) = (   0.0000000   0.0000000   0.4579200), wk =   0.0040000
        k(  459) = (   0.0000000   0.0000000   0.4589200), wk =   0.0040000
        k(  460) = (   0.0000000   0.0000000   0.4599200), wk =   0.0040000
        k(  461) = (   0.0000000   0.0000000   0.4609200), wk =   0.0040000
        k(  462) = (   0.0000000   0.0000000   0.4619200), wk =   0.0040000
        k(  463) = (   0.0000000   0.0000000   0.4629300), wk =   0.0040000
        k(  464) = (   0.0000000   0.0000000   0.4639300), wk =   0.0040000
        k(  465) = (   0.0000000   0.0000000   0.4649300), wk =   0.0040000
        k(  466) = (   0.0000000   0.0000000   0.4659300), wk =   0.0040000
        k(  467) = (   0.0000000   0.0000000   0.4669300), wk =   0.0040000
        k(  468) = (   0.0000000   0.0000000   0.4679400), wk =   0.0040000
        k(  469) = (   0.0000000   0.0000000   0.4689400), wk =   0.0040000
        k(  470) = (   0.0000000   0.0000000   0.4699400), wk =   0.0040000
        k(  471) = (   0.0000000   0.0000000   0.4709400), wk =   0.0040000
        k(  472) = (   0.0000000   0.0000000   0.4719400), wk =   0.0040000
        k(  473) = (   0.0000000   0.0000000   0.4729500), wk =   0.0040000
        k(  474) = (   0.0000000   0.0000000   0.4739500), wk =   0.0040000
        k(  475) = (   0.0000000   0.0000000   0.4749500), wk =   0.0040000
        k(  476) = (   0.0000000   0.0000000   0.4759500), wk =   0.0040000
        k(  477) = (   0.0000000   0.0000000   0.4769500), wk =   0.0040000
        k(  478) = (   0.0000000   0.0000000   0.4779600), wk =   0.0040000
        k(  479) = (   0.0000000   0.0000000   0.4789600), wk =   0.0040000
        k(  480) = (   0.0000000   0.0000000   0.4799600), wk =   0.0040000
        k(  481) = (   0.0000000   0.0000000   0.4809600), wk =   0.0040000
        k(  482) = (   0.0000000   0.0000000   0.4819600), wk =   0.0040000
        k(  483) = (   0.0000000   0.0000000   0.4829700), wk =   0.0040000
        k(  484) = (   0.0000000   0.0000000   0.4839700), wk =   0.0040000
        k(  485) = (   0.0000000   0.0000000   0.4849700), wk =   0.0040000
        k(  486) = (   0.0000000   0.0000000   0.4859700), wk =   0.0040000
        k(  487) = (   0.0000000   0.0000000   0.4869700), wk =   0.0040000
        k(  488) = (   0.0000000   0.0000000   0.4879800), wk =   0.0040000
        k(  489) = (   0.0000000   0.0000000   0.4889800), wk =   0.0040000
        k(  490) = (   0.0000000   0.0000000   0.4899800), wk =   0.0040000
        k(  491) = (   0.0000000   0.0000000   0.4909800), wk =   0.0040000
        k(  492) = (   0.0000000   0.0000000   0.4919800), wk =   0.0040000
        k(  493) = (   0.0000000   0.0000000   0.4929900), wk =   0.0040000
        k(  494) = (   0.0000000   0.0000000   0.4939900), wk =   0.0040000
        k(  495) = (   0.0000000   0.0000000   0.4949900), wk =   0.0040000
[...]

    -8.3627  -8.3627  -6.4154  -6.4152  -6.0684  -3.5627   2.9458   2.9458

          k = 0.0000 0.0000 1.5780 ( 11254 PWs)   bands (ev):

    -8.3684  -8.3684  -6.4138  -6.4136  -6.0588  -3.5362   2.9633   2.9633

          k = 0.0000 0.0000 1.5822 ( 11254 PWs)   bands (ev):

    -8.3740  -8.3740  -6.4122  -6.4121  -6.0495  -3.5098   2.9807   2.9807

          k = 0.0000 0.0000 1.5865 ( 11254 PWs)   bands (ev):

    -8.3796  -8.3796  -6.4107  -6.4105  -6.0403  -3.4834   2.9982   2.9982

          k = 0.0000 0.0000 1.5907 ( 11254 PWs)   bands (ev):

    -8.3851  -8.3851  -6.4092  -6.4090  -6.0312  -3.4568   3.0156   3.0156

          k = 0.0000 0.0000 1.5949 ( 11254 PWs)   bands (ev):

    -8.3906  -8.3906  -6.4076  -6.4074  -6.0222  -3.4301   3.0330   3.0330

          k = 0.0000 0.0000 1.5992 ( 11254 PWs)   bands (ev):

    -8.3961  -8.3961  -6.4061  -6.4059  -6.0132  -3.4030   3.0507   3.0507

          k = 0.0000 0.0000 1.6034 ( 11254 PWs)   bands (ev):

    -8.4015  -8.4015  -6.4046  -6.4044  -6.0044  -3.3761   3.0681   3.0681

          k = 0.0000 0.0000 1.6077 ( 11254 PWs)   bands (ev):

    -8.4068  -8.4068  -6.4031  -6.4029  -5.9958  -3.3490   3.0856   3.0856

          k = 0.0000 0.0000 1.6119 ( 11254 PWs)   bands (ev):

    -8.4121  -8.4121  -6.4016  -6.4014  -5.9872  -3.3219   3.1031   3.1031

          k = 0.0000 0.0000 1.6161 ( 11246 PWs)   bands (ev):

    -8.4174  -8.4174  -6.4001  -6.3999  -5.9787  -3.2946   3.1206   3.1206

          k = 0.0000 0.0000 1.6204 ( 11254 PWs)   bands (ev):

    -8.4227  -8.4227  -6.3986  -6.3984  -5.9703  -3.2670   3.1383   3.1383

          k = 0.0000 0.0000 1.6247 ( 11254 PWs)   bands (ev):

    -8.4279  -8.4279  -6.3971  -6.3969  -5.9621  -3.2395   3.1558   3.1558

          k = 0.0000 0.0000 1.6289 ( 11254 PWs)   bands (ev):

    -8.4330  -8.4330  -6.3957  -6.3955  -5.9539  -3.2119   3.1733   3.1733

          k = 0.0000 0.0000 1.6331 ( 11266 PWs)   bands (ev):

    -8.4382  -8.4382  -6.3942  -6.3940  -5.9459  -3.1843   3.1908   3.1908

          k = 0.0000 0.0000 1.6374 ( 11266 PWs)   bands (ev):

    -8.4432  -8.4432  -6.3928  -6.3926  -5.9380  -3.1565   3.2084   3.2084

          k = 0.0000 0.0000 1.6416 ( 11266 PWs)   bands (ev):

    -8.4483  -8.4483  -6.3913  -6.3911  -5.9300  -3.1284   3.2261   3.2261

          k = 0.0000 0.0000 1.6459 ( 11266 PWs)   bands (ev):

    -8.4533  -8.4533  -6.3899  -6.3897  -5.9223  -3.1004   3.2436   3.2436

          k = 0.0000 0.0000 1.6501 ( 11266 PWs)   bands (ev):

    -8.4582  -8.4582  -6.3885  -6.3883  -5.9147  -3.0724   3.2612   3.2612

          k = 0.0000 0.0000 1.6543 ( 11266 PWs)   bands (ev):

    -8.4631  -8.4631  -6.3871  -6.3869  -5.9071  -3.0443   3.2787   3.2787

          k = 0.0000 0.0000 1.6586 ( 11266 PWs)   bands (ev):

    -8.4680  -8.4680  -6.3857  -6.3855  -5.8997  -3.0161   3.2963   3.2963

          k = 0.0000 0.0000 1.6628 ( 11258 PWs)   bands (ev):

    -8.4729  -8.4729  -6.3843  -6.3842  -5.8922  -2.9875   3.3140   3.3140

          k = 0.0000 0.0000 1.6671 ( 11274 PWs)   bands (ev):

    -8.4776  -8.4776  -6.3830  -6.3828  -5.8850  -2.9591   3.3316   3.3316

          k = 0.0000 0.0000 1.6713 ( 11274 PWs)   bands (ev):

    -8.4824  -8.4824  -6.3816  -6.3814  -5.8778  -2.9307   3.3491   3.3491

          k = 0.0000 0.0000 1.6755 ( 11274 PWs)   bands (ev):

    -8.4870  -8.4870  -6.3803  -6.3801  -5.8707  -2.9022   3.3667   3.3667

          k = 0.0000 0.0000 1.6798 ( 11274 PWs)   bands (ev):

    -8.4917  -8.4917  -6.3790  -6.3788  -5.8637  -2.8736   3.3843   3.3843

          k = 0.0000 0.0000 1.6841 ( 11274 PWs)   bands (ev):

    -8.4963  -8.4963  -6.3776  -6.3774  -5.8568  -2.8446   3.4020   3.4020

          k = 0.0000 0.0000 1.6883 ( 11274 PWs)   bands (ev):

    -8.5009  -8.5009  -6.3763  -6.3761  -5.8500  -2.8159   3.4195   3.4195

          k = 0.0000 0.0000 1.6925 ( 11274 PWs)   bands (ev):

    -8.5054  -8.5054  -6.3750  -6.3748  -5.8433  -2.7871   3.4371   3.4371

          k = 0.0000 0.0000 1.6968 ( 11274 PWs)   bands (ev):

    -8.5099  -8.5099  -6.3737  -6.3735  -5.8366  -2.7582   3.4546   3.4546

          k = 0.0000 0.0000 1.7010 ( 11274 PWs)   bands (ev):

    -8.5143  -8.5143  -6.3724  -6.3723  -5.8301  -2.7293   3.4722   3.4722

          k = 0.0000 0.0000 1.7053 ( 11274 PWs)   bands (ev):

    -8.5188  -8.5188  -6.3712  -6.3710  -5.8236  -2.7000   3.4899   3.4899

          k = 0.0000 0.0000 1.7095 ( 11278 PWs)   bands (ev):

    -8.5231  -8.5231  -6.3699  -6.3697  -5.8172  -2.6709   3.5074   3.5074

          k = 0.0000 0.0000 1.7137 ( 11286 PWs)   bands (ev):

    -8.5274  -8.5274  -6.3687  -6.3685  -5.8109  -2.6418   3.5249   3.5249

          k = 0.0000 0.0000 1.7180 ( 11286 PWs)   bands (ev):

    -8.5317  -8.5317  -6.3674  -6.3672  -5.8047  -2.6126   3.5424   3.5424

          k = 0.0000 0.0000 1.7222 ( 11294 PWs)   bands (ev):

    -8.5359  -8.5359  -6.3662  -6.3660  -5.7986  -2.5834   3.5599   3.5599

          k = 0.0000 0.0000 1.7265 ( 11294 PWs)   bands (ev):

    -8.5401  -8.5401  -6.3650  -6.3648  -5.7925  -2.5539   3.5776   3.5776

          k = 0.0000 0.0000 1.7307 ( 11294 PWs)   bands (ev):

    -8.5443  -8.5443  -6.3638  -6.3636  -5.7865  -2.5246   3.5950   3.5950

          k = 0.0000 0.0000 1.7349 ( 11294 PWs)   bands (ev):

    -8.5484  -8.5484  -6.3626  -6.3624  -5.7806  -2.4952   3.6125   3.6125

          k = 0.0000 0.0000 1.7392 ( 11294 PWs)   bands (ev):

    -8.5524  -8.5524  -6.3614  -6.3612  -5.7748  -2.4658   3.6299   3.6299

          k = 0.0000 0.0000 1.7434 ( 11286 PWs)   bands (ev):

    -8.5564  -8.5564  -6.3603  -6.3601  -5.7691  -2.4364   3.6473   3.6473

          k = 0.0000 0.0000 1.7477 ( 11286 PWs)   bands (ev):

    -8.5604  -8.5604  -6.3591  -6.3589  -5.7634  -2.4066   3.6649   3.6649

          k = 0.0000 0.0000 1.7519 ( 11286 PWs)   bands (ev):

    -8.5643  -8.5643  -6.3579  -6.3578  -5.7579  -2.3771   3.6822   3.6822

          k = 0.0000 0.0000 1.7561 ( 11286 PWs)   bands (ev):

    -8.5682  -8.5682  -6.3568  -6.3566  -5.7524  -2.3475   3.6996   3.6996

          k = 0.0000 0.0000 1.7604 ( 11286 PWs)   bands (ev):

    -8.5720  -8.5720  -6.3557  -6.3555  -5.7470  -2.3180   3.7169   3.7169

          k = 0.0000 0.0000 1.7646 ( 11294 PWs)   bands (ev):

    -8.5758  -8.5758  -6.3546  -6.3544  -5.7417  -2.2884   3.7342   3.7342

          k = 0.0000 0.0000 1.7689 ( 11294 PWs)   bands (ev):

    -8.5796  -8.5796  -6.3535  -6.3533  -5.7363  -2.2585   3.7516   3.7516

          k = 0.0000 0.0000 1.7731 ( 11294 PWs)   bands (ev):

    -8.5833  -8.5833  -6.3524  -6.3522  -5.7312  -2.2288   3.7689   3.7689

          k = 0.0000 0.0000 1.7774 ( 11294 PWs)   bands (ev):

    -8.5870  -8.5870  -6.3513  -6.3511  -5.7261  -2.1992   3.7861   3.7861

          k = 0.0000 0.0000 1.7816 ( 11302 PWs)   bands (ev):

    -8.5906  -8.5906  -6.3503  -6.3501  -5.7210  -2.1695   3.8033   3.8033

          k = 0.0000 0.0000 1.7858 ( 11302 PWs)   bands (ev):

    -8.5942  -8.5942  -6.3492  -6.3490  -5.7161  -2.1398   3.8088   3.8204

          k = 0.0000 0.0000 1.7901 ( 11302 PWs)   bands (ev):

    -8.5977  -8.5977  -6.3482  -6.3480  -5.7111  -2.1098   3.7750   3.8377

          k = 0.0000 0.0000 1.7943 ( 11302 PWs)   bands (ev):

    -8.6012  -8.6012  -6.3471  -6.3470  -5.7063  -2.0801   3.7415   3.8547

          k = 0.0000 0.0000 1.7986 ( 11302 PWs)   bands (ev):

    -8.6046  -8.6046  -6.3461  -6.3459  -5.7016  -2.0504   3.7081   3.8717

          k = 0.0000 0.0000 1.8028 ( 11302 PWs)   bands (ev):

    -8.6080  -8.6080  -6.3451  -6.3449  -5.6969  -2.0207   3.6748   3.8887

          k = 0.0000 0.0000 1.8070 ( 11302 PWs)   bands (ev):

    -8.6114  -8.6114  -6.3441  -6.3440  -5.6923  -1.9910   3.6416   3.9056

          k = 0.0000 0.0000 1.8113 ( 11302 PWs)   bands (ev):

    -8.6147  -8.6147  -6.3432  -6.3430  -5.6878  -1.9610   3.6081   3.9227

          k = 0.0000 0.0000 1.8155 ( 11294 PWs)   bands (ev):

    -8.6179  -8.6179  -6.3422  -6.3420  -5.6833  -1.9314   3.5750   3.9395

          k = 0.0000 0.0000 1.8198 ( 11294 PWs)   bands (ev):

    -8.6212  -8.6212  -6.3412  -6.3411  -5.6789  -1.9017   3.5419   3.9563

          k = 0.0000 0.0000 1.8240 ( 11294 PWs)   bands (ev):

    -8.6243  -8.6243  -6.3403  -6.3401  -5.6746  -1.8720   3.5090   3.9730

          k = 0.0000 0.0000 1.8282 ( 11294 PWs)   bands (ev):

    -8.6275  -8.6275  -6.3394  -6.3392  -5.6704  -1.8424   3.4762   3.9897

          k = 0.0000 0.0000 1.8325 ( 11294 PWs)   bands (ev):

    -8.6306  -8.6306  -6.3385  -6.3383  -5.6661  -1.8125   3.4431   4.0065

          k = 0.0000 0.0000 1.8368 ( 11294 PWs)   bands (ev):

    -8.6336  -8.6336  -6.3376  -6.3374  -5.6620  -1.7829   3.4104   4.0230

          k = 0.0000 0.0000 1.8410 ( 11294 PWs)   bands (ev):

    -8.6366  -8.6366  -6.3367  -6.3365  -5.6580  -1.7534   3.3778   4.0395

          k = 0.0000 0.0000 1.8452 ( 11294 PWs)   bands (ev):

    -8.6395  -8.6395  -6.3358  -6.3356  -5.6540  -1.7239   3.3454   4.0559

          k = 0.0000 0.0000 1.8495 ( 11294 PWs)   bands (ev):

    -8.6424  -8.6424  -6.3349  -6.3347  -5.6501  -1.6944   3.3130   4.0722

          k = 0.0000 0.0000 1.8537 ( 11294 PWs)   bands (ev):

    -8.6453  -8.6453  -6.3341  -6.3339  -5.6462  -1.6647   3.2804   4.0886

          k = 0.0000 0.0000 1.8580 ( 11302 PWs)   bands (ev):

    -8.6481  -8.6481  -6.3332  -6.3331  -5.6425  -1.6354   3.2483   4.1048

          k = 0.0000 0.0000 1.8622 ( 11290 PWs)   bands (ev):

    -8.6509  -8.6509  -6.3324  -6.3322  -5.6388  -1.6061   3.2162   4.1208

          k = 0.0000 0.0000 1.8664 ( 11290 PWs)   bands (ev):

    -8.6536  -8.6536  -6.3316  -6.3314  -5.6351  -1.5768   3.1843   4.1368

          k = 0.0000 0.0000 1.8707 ( 11290 PWs)   bands (ev):

    -8.6563  -8.6563  -6.3308  -6.3306  -5.6316  -1.5477   3.1525   4.1528

          k = 0.0000 0.0000 1.8749 ( 11282 PWs)   bands (ev):

    -8.6590  -8.6590  -6.3300  -6.3298  -5.6280  -1.5183   3.1205   4.1687

          k = 0.0000 0.0000 1.8792 ( 11282 PWs)   bands (ev):

    -8.6615  -8.6615  -6.3292  -6.3291  -5.6246  -1.4893   3.0890   4.1844

          k = 0.0000 0.0000 1.8834 ( 11282 PWs)   bands (ev):

    -8.6641  -8.6641  -6.3285  -6.3283  -5.6212  -1.4603   3.0576   4.2000

          k = 0.0000 0.0000 1.8876 ( 11282 PWs)   bands (ev):

    -8.6666  -8.6666  -6.3277  -6.3275  -5.6179  -1.4315   3.0264   4.2155

          k = 0.0000 0.0000 1.8919 ( 11282 PWs)   bands (ev):

    -8.6690  -8.6690  -6.3270  -6.3268  -5.6146  -1.4028   2.9953   4.2309

          k = 0.0000 0.0000 1.8961 ( 11282 PWs)   bands (ev):

    -8.6715  -8.6715  -6.3263  -6.3261  -5.6114  -1.3738   2.9641   4.2464

          k = 0.0000 0.0000 1.9004 ( 11282 PWs)   bands (ev):

    -8.6738  -8.6738  -6.3256  -6.3254  -5.6083  -1.3453   2.9333   4.2615

          k = 0.0000 0.0000 1.9046 ( 11282 PWs)   bands (ev):

    -8.6761  -8.6761  -6.3249  -6.3247  -5.6053  -1.3169   2.9027   4.2765

          k = 0.0000 0.0000 1.9088 ( 11282 PWs)   bands (ev):

    -8.6784  -8.6784  -6.3242  -6.3240  -5.6023  -1.2887   2.8723   4.2914

          k = 0.0000 0.0000 1.9131 ( 11282 PWs)   bands (ev):

    -8.6806  -8.6806  -6.3235  -6.3233  -5.5993  -1.2605   2.8421   4.3062

          k = 0.0000 0.0000 1.9174 ( 11290 PWs)   bands (ev):

    -8.6828  -8.6828  -6.3229  -6.3227  -5.5965  -1.2323   2.8118   4.3210

          k = 0.0000 0.0000 1.9216 ( 11290 PWs)   bands (ev):

    -8.6850  -8.6850  -6.3222  -6.3220  -5.5937  -1.2044   2.7820   4.3354

          k = 0.0000 0.0000 1.9258 ( 11290 PWs)   bands (ev):

    -8.6871  -8.6871  -6.3216  -6.3214  -5.5909  -1.1768   2.7524   4.3498

          k = 0.0000 0.0000 1.9301 ( 11290 PWs)   bands (ev):

    -8.6891  -8.6891  -6.3210  -6.3208  -5.5882  -1.1493   2.7230   4.3639

          k = 0.0000 0.0000 1.9343 ( 11290 PWs)   bands (ev):

    -8.6911  -8.6911  -6.3204  -6.3202  -5.5856  -1.1220   2.6939   4.3779

          k = 0.0000 0.0000 1.9386 ( 11290 PWs)   bands (ev):

    -8.6931  -8.6931  -6.3198  -6.3196  -5.5831  -1.0946   2.6647   4.3919

          k = 0.0000 0.0000 1.9428 ( 11306 PWs)   bands (ev):

    -8.6950  -8.6950  -6.3192  -6.3190  -5.5806  -1.0677   2.6360   4.4055

          k = 0.0000 0.0000 1.9470 ( 11306 PWs)   bands (ev):

    -8.6969  -8.6969  -6.3187  -6.3185  -5.5781  -1.0410   2.6077   4.4190

          k = 0.0000 0.0000 1.9513 ( 11298 PWs)   bands (ev):

    -8.6987  -8.6987  -6.3181  -6.3179  -5.5758  -1.0145   2.5796   4.4323

          k = 0.0000 0.0000 1.9555 ( 11298 PWs)   bands (ev):

    -8.7004  -8.7004  -6.3176  -6.3174  -5.5735  -0.9883   2.5518   4.4454

          k = 0.0000 0.0000 1.9598 ( 11298 PWs)   bands (ev):

    -8.7022  -8.7022  -6.3170  -6.3169  -5.5712  -0.9621   2.5240   4.4584

          k = 0.0000 0.0000 1.9640 ( 11298 PWs)   bands (ev):

    -8.7039  -8.7039  -6.3165  -6.3164  -5.5690  -0.9365   2.4968   4.4711

          k = 0.0000 0.0000 1.9682 ( 11298 PWs)   bands (ev):

    -8.7055  -8.7055  -6.3160  -6.3159  -5.5669  -0.9111   2.4700   4.4835

          k = 0.0000 0.0000 1.9725 ( 11298 PWs)   bands (ev):

    -8.7071  -8.7071  -6.3156  -6.3154  -5.5649  -0.8860   2.4435   4.4958

          k = 0.0000 0.0000 1.9767 ( 11298 PWs)   bands (ev):

    -8.7086  -8.7086  -6.3151  -6.3149  -5.5629  -0.8612   2.4173   4.5078

          k = 0.0000 0.0000 1.9810 ( 11282 PWs)   bands (ev):

    -8.7101  -8.7101  -6.3146  -6.3145  -5.5609  -0.8366   2.3914   4.5196

          k = 0.0000 0.0000 1.9852 ( 11282 PWs)   bands (ev):

    -8.7116  -8.7116  -6.3142  -6.3140  -5.5590  -0.8125   2.3660   4.5312

          k = 0.0000 0.0000 1.9895 ( 11282 PWs)   bands (ev):

    -8.7130  -8.7130  -6.3138  -6.3136  -5.5572  -0.7889   2.3411   4.5424

          k = 0.0000 0.0000 1.9937 ( 11282 PWs)   bands (ev):

    -8.7143  -8.7143  -6.3134  -6.3132  -5.5555  -0.7656   2.3166   4.5534

          k = 0.0000 0.0000 1.9979 ( 11286 PWs)   bands (ev):

    -8.7157  -8.7157  -6.3130  -6.3128  -5.5538  -0.7427   2.2926   4.5641

          k = 0.0000 0.0000 2.0022 ( 11286 PWs)   bands (ev):

    -8.7169  -8.7169  -6.3126  -6.3124  -5.5521  -0.7201   2.2689   4.5747

          k = 0.0000 0.0000 2.0064 ( 11270 PWs)   bands (ev):

    -8.7182  -8.7182  -6.3122  -6.3120  -5.5505  -0.6981   2.2459   4.5849

          k = 0.0000 0.0000 2.0107 ( 11270 PWs)   bands (ev):

    -8.7193  -8.7193  -6.3119  -6.3117  -5.5490  -0.6767   2.2234   4.5947

          k = 0.0000 0.0000 2.0149 ( 11270 PWs)   bands (ev):

    -8.7205  -8.7205  -6.3115  -6.3113  -5.5476  -0.6557   2.2015   4.6043

          k = 0.0000 0.0000 2.0191 ( 11254 PWs)   bands (ev):

    -8.7215  -8.7215  -6.3112  -6.3110  -5.5462  -0.6353   2.1801   4.6135

          k = 0.0000 0.0000 2.0234 ( 11254 PWs)   bands (ev):

    -8.7226  -8.7226  -6.3109  -6.3107  -5.5448  -0.6153   2.1592   4.6226

          k = 0.0000 0.0000 2.0276 ( 11254 PWs)   bands (ev):

    -8.7236  -8.7236  -6.3106  -6.3104  -5.5435  -0.5961   2.1391   4.6312

          k = 0.0000 0.0000 2.0319 ( 11254 PWs)   bands (ev):

    -8.7245  -8.7245  -6.3103  -6.3101  -5.5423  -0.5774   2.1196   4.6394

          k = 0.0000 0.0000 2.0361 ( 11254 PWs)   bands (ev):

    -8.7254  -8.7254  -6.3100  -6.3098  -5.5412  -0.5594   2.1009   4.6474

          k = 0.0000 0.0000 2.0403 ( 11254 PWs)   bands (ev):

    -8.7263  -8.7263  -6.3098  -6.3096  -5.5401  -0.5421   2.0828   4.6549

          k = 0.0000 0.0000 2.0446 ( 11254 PWs)   bands (ev):

    -8.7271  -8.7271  -6.3095  -6.3093  -5.5390  -0.5254   2.0654   4.6622

          k = 0.0000 0.0000 2.0488 ( 11254 PWs)   bands (ev):

    -8.7278  -8.7278  -6.3093  -6.3091  -5.5381  -0.5095   2.0489   4.6691

          k = 0.0000 0.0000 2.0531 ( 11242 PWs)   bands (ev):

    -8.7285  -8.7285  -6.3091  -6.3089  -5.5371  -0.4945   2.0332   4.6755

          k = 0.0000 0.0000 2.0573 ( 11234 PWs)   bands (ev):

    -8.7292  -8.7292  -6.3089  -6.3087  -5.5363  -0.4802   2.0183   4.6816

          k = 0.0000 0.0000 2.0615 ( 11234 PWs)   bands (ev):

    -8.7298  -8.7298  -6.3087  -6.3085  -5.5355  -0.4667   2.0043   4.6873

          k = 0.0000 0.0000 2.0658 ( 11234 PWs)   bands (ev):

    -8.7304  -8.7304  -6.3085  -6.3083  -5.5347  -0.4540   1.9911   4.6927

          k = 0.0000 0.0000 2.0701 ( 11234 PWs)   bands (ev):

    -8.7309  -8.7309  -6.3083  -6.3081  -5.5341  -0.4423   1.9789   4.6976

          k = 0.0000 0.0000 2.0743 ( 11234 PWs)   bands (ev):

    -8.7314  -8.7314  -6.3082  -6.3080  -5.5334  -0.4315   1.9677   4.7021

          k = 0.0000 0.0000 2.0785 ( 11234 PWs)   bands (ev):

    -8.7319  -8.7319  -6.3080  -6.3079  -5.5329  -0.4216   1.9575   4.7062

          k = 0.0000 0.0000 2.0828 ( 11218 PWs)   bands (ev):

    -8.7323  -8.7323  -6.3079  -6.3077  -5.5324  -0.4127   1.9483   4.7099

          k = 0.0000 0.0000 2.0870 ( 11214 PWs)   bands (ev):

    -8.7326  -8.7326  -6.3078  -6.3076  -5.5319  -0.4047   1.9400   4.7132

          k = 0.0000 0.0000 2.0913 ( 11222 PWs)   bands (ev):

    -8.7329  -8.7329  -6.3077  -6.3075  -5.5315  -0.3978   1.9328   4.7160

          k = 0.0000 0.0000 2.0955 ( 11230 PWs)   bands (ev):

    -8.7332  -8.7332  -6.3077  -6.3075  -5.5312  -0.3919   1.9267   4.7184

          k = 0.0000 0.0000 2.0997 ( 11230 PWs)   bands (ev):

    -8.7334  -8.7334  -6.3076  -6.3074  -5.5310  -0.3871   1.9217   4.7204

          k = 0.0000 0.0000 2.1040 ( 11230 PWs)   bands (ev):

    -8.7335  -8.7335  -6.3075  -6.3074  -5.5307  -0.3833   1.9178   4.7219

          k = 0.0000 0.0000 2.1082 ( 11230 PWs)   bands (ev):

    -8.7336  -8.7336  -6.3075  -6.3073  -5.5306  -0.3806   1.9150   4.7230

          k = 0.0000 0.0000 2.1125 ( 11226 PWs)   bands (ev):

    -8.7337  -8.7337  -6.3075  -6.3073  -5.5305  -0.3790   1.9133   4.7237

          k = 0.0000 0.0000 2.1167 ( 11226 PWs)   bands (ev):

    -8.7337  -8.7337  -6.3075  -6.3073  -5.5305  -0.3784   1.9127   4.7239

     Writing output data file gold1.save
 
     init_run     :      0.31s CPU      0.35s WALL (       1 calls)
     electrons    :    179.66s CPU    180.81s WALL (       1 calls)

     Called by init_run:
     wfcinit      :      0.00s CPU      0.00s WALL (       1 calls)
     potinit      :      0.07s CPU      0.07s WALL (       1 calls)

     Called by electrons:
     c_bands      :    179.65s CPU    180.80s WALL (       1 calls)
     v_of_rho     :      0.05s CPU      0.05s WALL (       1 calls)
     v_h          :      0.00s CPU      0.00s WALL (       1 calls)
     v_xc         :      0.05s CPU      0.05s WALL (       1 calls)

     Called by c_bands:
     init_us_2    :      0.00s CPU      0.34s WALL (     500 calls)
     cegterg      :    163.52s CPU    164.57s WALL (     593 calls)

     Called by sum_band:

     Called by *egterg:
     h_psi        :    154.09s CPU    156.83s WALL (   10105 calls)
     g_psi        :      2.16s CPU      1.97s WALL (    9012 calls)
     cdiaghg      :      3.22s CPU      3.34s WALL (    9512 calls)
     cegterg:over :      6.79s CPU      6.62s WALL (    9012 calls)
     cegterg:upda :      4.87s CPU      4.83s WALL (    9012 calls)
     cegterg:last :      2.69s CPU      2.91s WALL (    2095 calls)

     Called by h_psi:
     h_psi:vloc   :    149.92s CPU    152.74s WALL (   10105 calls)
     h_psi:vnl    :      3.50s CPU      3.42s WALL (   10105 calls)
     add_vuspsi   :      1.41s CPU      1.31s WALL (   10105 calls)

     General routines
     calbec       :      2.08s CPU      2.08s WALL (   10105 calls)
     fft          :      0.01s CPU      0.03s WALL (      11 calls)
     fftw         :    137.25s CPU    138.31s WALL (  100834 calls)
 
     Parallel routines
     fft_scatter  :     36.99s CPU     36.36s WALL (  100845 calls)
 
     PWSCF        :  3m 8.85s CPU     3m11.39s WALL

 
   This run was terminated on:  18:44:54  31Jul2013            

=------------------------------------------------------------------------------=
   JOB DONE.
=------------------------------------------------------------------------------=
