
     Program PROJWFC v.5.0.1 starts on 28Feb2013 at 10: 9:14 

     This program is part of the open-source Quantum ESPRESSO suite
     for quantum simulation of materials; please cite
         "P. Giannozzi et al., J. Phys.:Condens. Matter 21 395502 (2009);
          URL http://www.quantum-espresso.org", 
     in publications or presentations arising from this work. More details at
     http://www.quantum-espresso.org/quote.php

     Parallel version (MPI), running on     6 processors
     R & G space division:  proc/pool =    6

   Info: using nr1, nr2, nr3 values from input

   Info: using nr1s, nr2s, nr3s values from input

     IMPORTANT: XC functional enforced from input :
     Exchange-correlation      =  SLA  PZ   NOGX NOGC ( 1 1 0 0 0)
     EXX-fraction              =        0.00
     Any further DFT definition will be discarded
     Please, verify this is what you really want

               file H.pz-vbc.UPF: wavefunction(s)  1S renormalized
 
     Parallelization info
     --------------------
     sticks:   dense  smooth     PW     G-vecs:    dense   smooth      PW
     Min        1907    1907    584                23948    23948    4049
     Max        1909    1909    586                23949    23949    4050
     Sum       11449   11449   3513               143691   143691   24299
 

     Gaussian broadening (default values): ngauss,degauss=   0    0.000735


     Calling projwave .... 

     Atomic states used for projection
     (read from pseudopotential files):

     state #   1: atom   1 (C  ), wfc  1 (l=0 m= 1)
     state #   2: atom   1 (C  ), wfc  2 (l=1 m= 1)
     state #   3: atom   1 (C  ), wfc  2 (l=1 m= 2)
     state #   4: atom   1 (C  ), wfc  2 (l=1 m= 3)
     state #   5: atom   2 (C  ), wfc  1 (l=0 m= 1)
     state #   6: atom   2 (C  ), wfc  2 (l=1 m= 1)
     state #   7: atom   2 (C  ), wfc  2 (l=1 m= 2)
     state #   8: atom   2 (C  ), wfc  2 (l=1 m= 3)
     state #   9: atom   3 (H  ), wfc  1 (l=0 m= 1)
     state #  10: atom   4 (H  ), wfc  1 (l=0 m= 1)

 k =   0.0000000000  0.0000000000  0.0000000000
==== e(   1) =   -20.54518 eV ==== 
     psi = 0.396*[#   1]+0.396*[#   5]+0.072*[#   9]+0.072*[#  10]+0.023*[#   3]+
          +0.023*[#   7]+
    |psi|^2 = 0.984
==== e(   2) =   -13.97961 eV ==== 
     psi = 0.285*[#   3]+0.285*[#   7]+0.127*[#   9]+0.127*[#  10]+0.067*[#   1]+
          +0.067*[#   5]+
    |psi|^2 = 0.958
==== e(   3) =    -8.92861 eV ==== 
     psi = 0.340*[#   2]+0.340*[#   6]+0.087*[#   3]+0.087*[#   7]+0.068*[#   9]+
          +0.068*[#  10]+
    |psi|^2 = 0.991
==== e(   4) =    -8.92242 eV ==== 
     psi = 0.490*[#   4]+0.490*[#   8]+
    |psi|^2 = 0.980
==== e(   5) =    -7.98018 eV ==== 
     psi = 0.182*[#   3]+0.182*[#   7]+0.157*[#   2]+0.157*[#   6]+0.148*[#   9]+
          +0.148*[#  10]+0.007*[#   1]+0.007*[#   5]+
    |psi|^2 = 0.989
==== e(   6) =    -0.22658 eV ==== 
     psi = 0.173*[#   9]+0.173*[#  10]+0.020*[#   1]+0.020*[#   5]+0.014*[#   3]+
          +0.014*[#   7]+
    |psi|^2 = 0.416
==== e(   7) =    -0.09021 eV ==== 
     psi = 0.042*[#   9]+0.042*[#  10]+0.019*[#   3]+0.019*[#   7]+0.007*[#   1]+
          +0.007*[#   5]+
    |psi|^2 = 0.137
==== e(   8) =     0.30229 eV ==== 
     psi = 0.215*[#   4]+0.215*[#   8]+
    |psi|^2 = 0.431
==== e(   9) =     0.54941 eV ==== 
     psi = 0.003*[#   4]+0.003*[#   8]+
    |psi|^2 = 0.006
==== e(  10) =     0.62398 eV ==== 
     psi = 0.015*[#   9]+0.015*[#  10]+0.007*[#   3]+0.007*[#   7]+0.002*[#   1]+
          +0.002*[#   5]+
    |psi|^2 = 0.048
==== e(  11) =     0.68659 eV ==== 
     psi = 0.004*[#   9]+0.004*[#  10]+0.003*[#   3]+0.003*[#   7]+0.002*[#   1]+
          +0.002*[#   5]+
    |psi|^2 = 0.018
==== e(  12) =     1.08244 eV ==== 
     psi = 0.018*[#   9]+0.018*[#  10]+0.003*[#   3]+0.003*[#   7]+0.001*[#   1]+
          +0.001*[#   5]+
    |psi|^2 = 0.045
==== e(  13) =     1.23319 eV ==== 
     psi = 0.001*[#   4]+0.001*[#   8]+
    |psi|^2 = 0.003
==== e(  14) =     1.39691 eV ==== 
     psi = 0.008*[#   9]+0.008*[#  10]+0.004*[#   3]+0.004*[#   7]+
    |psi|^2 = 0.025
==== e(  15) =     1.56323 eV ==== 
     psi = 0.064*[#   4]+0.064*[#   8]+
    |psi|^2 = 0.128

 k =   0.0000000000  0.0000000000  0.2142713275
==== e(   1) =   -20.52708 eV ==== 
     psi = 0.395*[#   1]+0.395*[#   5]+0.072*[#   9]+0.072*[#  10]+0.022*[#   3]+
          +0.022*[#   7]+0.003*[#   2]+0.003*[#   6]+
    |psi|^2 = 0.984
==== e(   2) =   -13.96239 eV ==== 
     psi = 0.285*[#   3]+0.285*[#   7]+0.127*[#   9]+0.127*[#  10]+0.067*[#   1]+
          +0.067*[#   5]+
    |psi|^2 = 0.958
==== e(   3) =    -8.97984 eV ==== 
     psi = 0.355*[#   2]+0.355*[#   6]+0.078*[#   3]+0.078*[#   7]+0.061*[#   9]+
          +0.061*[#  10]+0.002*[#   1]+0.002*[#   5]+
    |psi|^2 = 0.992
==== e(   4) =    -8.89916 eV ==== 
     psi = 0.490*[#   4]+0.490*[#   8]+
    |psi|^2 = 0.980
==== e(   5) =    -8.00887 eV ==== 
     psi = 0.192*[#   3]+0.192*[#   7]+0.155*[#   9]+0.155*[#  10]+0.139*[#   2]+
          +0.139*[#   6]+0.008*[#   1]+0.008*[#   5]+
    |psi|^2 = 0.988
==== e(   6) =    -0.19931 eV ==== 
     psi = 0.172*[#   9]+0.172*[#  10]+0.021*[#   1]+0.021*[#   5]+0.014*[#   3]+
          +0.014*[#   7]+
    |psi|^2 = 0.414
==== e(   7) =    -0.06653 eV ==== 
     psi = 0.042*[#   9]+0.042*[#  10]+0.019*[#   3]+0.019*[#   7]+0.008*[#   1]+
          +0.008*[#   5]+
    |psi|^2 = 0.139
==== e(   8) =     0.32042 eV ==== 
     psi = 0.218*[#   4]+0.218*[#   8]+
    |psi|^2 = 0.436
==== e(   9) =     0.57662 eV ==== 
     psi = 0.003*[#   4]+0.003*[#   8]+
    |psi|^2 = 0.005
==== e(  10) =     0.65006 eV ==== 
     psi = 0.015*[#   9]+0.015*[#  10]+0.007*[#   3]+0.007*[#   7]+0.002*[#   1]+
          +0.002*[#   5]+
    |psi|^2 = 0.049
==== e(  11) =     0.71288 eV ==== 
     psi = 0.004*[#   9]+0.004*[#  10]+0.002*[#   3]+0.002*[#   7]+0.002*[#   1]+
          +0.002*[#   5]+
    |psi|^2 = 0.017
==== e(  12) =     1.11000 eV ==== 
     psi = 0.018*[#   9]+0.018*[#  10]+0.003*[#   3]+0.003*[#   7]+0.001*[#   1]+
          +0.001*[#   5]+
    |psi|^2 = 0.044
==== e(  13) =     1.26046 eV ==== 
     psi = 0.001*[#   4]+0.001*[#   8]+
    |psi|^2 = 0.003
==== e(  14) =     1.42344 eV ==== 
     psi = 0.008*[#   9]+0.008*[#  10]+0.004*[#   3]+0.004*[#   7]+
    |psi|^2 = 0.026
==== e(  15) =     1.58603 eV ==== 
     psi = 0.064*[#   4]+0.064*[#   8]+
    |psi|^2 = 0.127

 k =   0.0000000000  0.0000000000  0.4285426550
==== e(   1) =   -20.47187 eV ==== 
     psi = 0.389*[#   1]+0.389*[#   5]+0.070*[#   9]+0.070*[#  10]+0.022*[#   3]+
          +0.022*[#   7]+0.011*[#   2]+0.011*[#   6]+
    |psi|^2 = 0.984
==== e(   2) =   -13.91083 eV ==== 
     psi = 0.284*[#   3]+0.284*[#   7]+0.128*[#   9]+0.128*[#  10]+0.068*[#   1]+
          +0.068*[#   5]+
    |psi|^2 = 0.959
==== e(   3) =    -9.14660 eV ==== 
     psi = 0.390*[#   2]+0.390*[#   6]+0.056*[#   3]+0.056*[#   7]+0.043*[#   9]+
          +0.043*[#  10]+0.007*[#   1]+0.007*[#   5]+
    |psi|^2 = 0.993
==== e(   4) =    -8.82547 eV ==== 
     psi = 0.491*[#   4]+0.491*[#   8]+
    |psi|^2 = 0.981
==== e(   5) =    -8.07714 eV ==== 
     psi = 0.216*[#   3]+0.216*[#   7]+0.174*[#   9]+0.174*[#  10]+0.095*[#   2]+
          +0.095*[#   6]+0.008*[#   1]+0.008*[#   5]+
    |psi|^2 = 0.988
==== e(   6) =    -0.11817 eV ==== 
     psi = 0.169*[#   9]+0.169*[#  10]+0.022*[#   1]+0.022*[#   5]+0.013*[#   3]+
          +0.013*[#   7]+
    |psi|^2 = 0.410
==== e(   7) =     0.00423 eV ==== 
     psi = 0.043*[#   9]+0.043*[#  10]+0.019*[#   3]+0.019*[#   7]+0.009*[#   1]+
          +0.009*[#   5]+0.002*[#   2]+0.002*[#   6]+
    |psi|^2 = 0.147
==== e(   8) =     0.37228 eV ==== 
     psi = 0.226*[#   4]+0.226*[#   8]+
    |psi|^2 = 0.452
==== e(   9) =     0.65844 eV ==== 
     psi = 0.003*[#   4]+0.003*[#   8]+
    |psi|^2 = 0.005
==== e(  10) =     0.72801 eV ==== 
     psi = 0.016*[#   9]+0.016*[#  10]+0.007*[#   3]+0.007*[#   7]+0.002*[#   1]+
          +0.002*[#   5]+0.001*[#   2]+0.001*[#   6]+
    |psi|^2 = 0.053
==== e(  11) =     0.79195 eV ==== 
     psi = 0.003*[#   9]+0.003*[#  10]+0.002*[#   1]+0.002*[#   3]+0.002*[#   5]+
          +0.002*[#   7]+
    |psi|^2 = 0.015
==== e(  12) =     1.19253 eV ==== 
     psi = 0.017*[#   9]+0.017*[#  10]+0.003*[#   3]+0.003*[#   7]+0.001*[#   1]+
          +0.001*[#   5]+
    |psi|^2 = 0.044
==== e(  13) =     1.34236 eV ==== 
     psi = 0.001*[#   4]+0.001*[#   8]+
    |psi|^2 = 0.003
==== e(  14) =     1.50289 eV ==== 
     psi = 0.008*[#   9]+0.008*[#  10]+0.004*[#   3]+0.004*[#   7]+0.001*[#   1]+
          +0.001*[#   5]+
    |psi|^2 = 0.027
==== e(  15) =     1.65361 eV ==== 
     psi = 0.063*[#   4]+0.063*[#   8]+
    |psi|^2 = 0.126

 k =   0.0000000000  0.0000000000  0.6428139825
==== e(   1) =   -20.38014 eV ==== 
     psi = 0.381*[#   1]+0.381*[#   5]+0.068*[#   9]+0.068*[#  10]+0.022*[#   2]+
          +0.022*[#   6]+0.021*[#   3]+0.021*[#   7]+
    |psi|^2 = 0.984
==== e(   2) =   -13.82616 eV ==== 
     psi = 0.281*[#   3]+0.281*[#   7]+0.130*[#   9]+0.130*[#  10]+0.069*[#   1]+
          +0.069*[#   5]+
    |psi|^2 = 0.960
==== e(   3) =    -9.43963 eV ==== 
     psi = 0.419*[#   2]+0.419*[#   6]+0.037*[#   3]+0.037*[#   7]+0.025*[#   9]+
          +0.025*[#  10]+0.016*[#   1]+0.016*[#   5]+
    |psi|^2 = 0.993
==== e(   4) =    -8.70329 eV ==== 
     psi = 0.491*[#   4]+0.491*[#   8]+
    |psi|^2 = 0.983
==== e(   5) =    -8.15219 eV ==== 
     psi = 0.240*[#   3]+0.240*[#   7]+0.192*[#   9]+0.192*[#  10]+0.055*[#   2]+
          +0.055*[#   6]+0.008*[#   1]+0.008*[#   5]+
    |psi|^2 = 0.988
==== e(   6) =     0.01564 eV ==== 
     psi = 0.165*[#   9]+0.165*[#  10]+0.023*[#   1]+0.023*[#   5]+0.013*[#   3]+
          +0.013*[#   7]+
    |psi|^2 = 0.402
==== e(   7) =     0.12053 eV ==== 
     psi = 0.046*[#   9]+0.046*[#  10]+0.019*[#   3]+0.019*[#   7]+0.011*[#   1]+
          +0.011*[#   5]+0.005*[#   2]+0.005*[#   6]+
    |psi|^2 = 0.160
==== e(   8) =     0.45177 eV ==== 
     psi = 0.241*[#   4]+0.241*[#   8]+
    |psi|^2 = 0.482
==== e(   9) =     0.79474 eV ==== 
     psi = 0.002*[#   4]+0.002*[#   8]+
    |psi|^2 = 0.005
==== e(  10) =     0.85686 eV ==== 
     psi = 0.016*[#   9]+0.016*[#  10]+0.007*[#   3]+0.007*[#   7]+0.003*[#   1]+
          +0.003*[#   5]+0.002*[#   2]+0.002*[#   6]+
    |psi|^2 = 0.059
==== e(  11) =     0.92419 eV ==== 
     psi = 0.003*[#   9]+0.003*[#  10]+0.002*[#   1]+0.002*[#   5]+0.002*[#   3]+
          +0.002*[#   7]+
    |psi|^2 = 0.012
==== e(  12) =     1.32973 eV ==== 
     psi = 0.017*[#   9]+0.017*[#  10]+0.003*[#   3]+0.003*[#   7]+0.002*[#   1]+
          +0.002*[#   5]+
    |psi|^2 = 0.043
==== e(  13) =     1.47884 eV ==== 
     psi = 0.001*[#   4]+0.001*[#   8]+
    |psi|^2 = 0.002
==== e(  14) =     1.63464 eV ==== 
     psi = 0.008*[#   9]+0.008*[#  10]+0.004*[#   3]+0.004*[#   7]+0.002*[#   1]+
          +0.002*[#   5]+0.001*[#   2]+0.001*[#   6]+
    |psi|^2 = 0.031
==== e(  15) =     1.76447 eV ==== 
     psi = 0.061*[#   4]+0.061*[#   8]+
    |psi|^2 = 0.123

 k =   0.0000000000  0.0000000000  0.8570853100
==== e(   1) =   -20.25260 eV ==== 
     psi = 0.370*[#   1]+0.370*[#   5]+0.064*[#   9]+0.064*[#  10]+0.037*[#   2]+
          +0.037*[#   6]+0.020*[#   3]+0.020*[#   7]+
    |psi|^2 = 0.983
==== e(   2) =   -13.70994 eV ==== 
     psi = 0.278*[#   3]+0.278*[#   7]+0.132*[#   9]+0.132*[#  10]+0.071*[#   1]+
          +0.071*[#   5]+
    |psi|^2 = 0.962
==== e(   3) =    -9.85510 eV ==== 
     psi = 0.429*[#   2]+0.429*[#   6]+0.026*[#   1]+0.026*[#   3]+0.026*[#   5]+
          +0.026*[#   7]+0.015*[#   9]+0.015*[#  10]+
    |psi|^2 = 0.993
==== e(   4) =    -8.53406 eV ==== 
     psi = 0.492*[#   4]+0.492*[#   8]+
    |psi|^2 = 0.985
==== e(   5) =    -8.22069 eV ==== 
     psi = 0.255*[#   3]+0.255*[#   7]+0.202*[#   9]+0.202*[#  10]+0.032*[#   2]+
          +0.032*[#   6]+0.006*[#   1]+0.006*[#   5]+
    |psi|^2 = 0.988
==== e(   6) =     0.20048 eV ==== 
     psi = 0.159*[#   9]+0.159*[#  10]+0.024*[#   1]+0.024*[#   5]+0.013*[#   3]+
          +0.012*[#   7]+
    |psi|^2 = 0.392
==== e(   7) =     0.27965 eV ==== 
     psi = 0.051*[#  10]+0.051*[#   9]+0.019*[#   3]+0.019*[#   7]+0.014*[#   1]+
          +0.014*[#   5]+0.008*[#   2]+0.008*[#   6]+
    |psi|^2 = 0.184
==== e(   8) =     0.54644 eV ==== 
     psi = 0.266*[#   4]+0.266*[#   8]+
    |psi|^2 = 0.531
==== e(   9) =     0.98546 eV ==== 
     psi = 0.002*[#   4]+0.002*[#   8]+
    |psi|^2 = 0.004
==== e(  10) =     1.03486 eV ==== 
     psi = 0.017*[#   9]+0.017*[#  10]+0.007*[#   3]+0.007*[#   7]+0.005*[#   1]+
          +0.005*[#   5]+0.004*[#   2]+0.004*[#   6]+
    |psi|^2 = 0.066
==== e(  11) =     1.11032 eV ==== 
     psi = 0.002*[#   1]+0.002*[#   5]+0.002*[#   9]+0.002*[#  10]+0.001*[#   3]+
          +0.001*[#   7]+
    |psi|^2 = 0.008
==== e(  12) =     1.52133 eV ==== 
     psi = 0.016*[#   9]+0.016*[#  10]+0.003*[#   3]+0.003*[#   7]+0.002*[#   1]+
          +0.002*[#   5]+
    |psi|^2 = 0.042
==== e(  13) =     1.66982 eV ==== 
     psi = 0.001*[#   4]+0.001*[#   8]+
    |psi|^2 = 0.002
==== e(  14) =     1.81718 eV ==== 
     psi = 0.009*[#   9]+0.009*[#  10]+0.004*[#   3]+0.004*[#   7]+0.003*[#   1]+
          +0.003*[#   2]+0.003*[#   5]+0.003*[#   6]+
    |psi|^2 = 0.037
==== e(  15) =     1.91630 eV ==== 
     psi = 0.058*[#   4]+0.058*[#   8]+
    |psi|^2 = 0.116

 k =   0.0000000000  0.0000000000  1.0713566375
==== e(   1) =   -20.08860 eV ==== 
     psi = 0.357*[#   1]+0.357*[#   5]+0.061*[#   9]+0.061*[#  10]+0.055*[#   2]+
          +0.055*[#   6]+0.019*[#   3]+0.019*[#   7]+
    |psi|^2 = 0.983
==== e(   2) =   -13.56605 eV ==== 
     psi = 0.272*[#   3]+0.272*[#   7]+0.136*[#   9]+0.136*[#  10]+0.074*[#   1]+
          +0.074*[#   5]+
    |psi|^2 = 0.964
==== e(   3) =   -10.35186 eV ==== 
     psi = 0.425*[#   2]+0.425*[#   6]+0.037*[#   1]+0.037*[#   5]+0.025*[#   3]+
          +0.025*[#   7]+0.009*[#   9]+0.009*[#  10]+
    |psi|^2 = 0.992
==== e(   4) =    -8.31707 eV ==== 
     psi = 0.494*[#   4]+0.494*[#   8]+
    |psi|^2 = 0.987
==== e(   5) =    -8.28467 eV ==== 
     psi = 0.263*[#   3]+0.263*[#   7]+0.205*[#   9]+0.205*[#  10]+0.022*[#   2]+
          +0.022*[#   6]+0.003*[#   1]+0.003*[#   5]+
    |psi|^2 = 0.988
==== e(   6) =     0.43271 eV ==== 
     psi = 0.143*[#   9]+0.143*[#  10]+0.024*[#   1]+0.024*[#   5]+0.013*[#   3]+
          +0.013*[#   7]+0.003*[#   2]+0.003*[#   6]+
    |psi|^2 = 0.368
==== e(   7) =     0.47918 eV ==== 
     psi = 0.066*[#  10]+0.066*[#   9]+0.019*[#   1]+0.019*[#   5]+0.018*[#   3]+
          +0.018*[#   7]+0.011*[#   2]+0.011*[#   6]+
    |psi|^2 = 0.230
==== e(   8) =     0.63175 eV ==== 
     psi = 0.302*[#   4]+0.302*[#   8]+
    |psi|^2 = 0.604
==== e(   9) =     1.23061 eV ==== 
     psi = 0.002*[#   4]+0.002*[#   8]+
    |psi|^2 = 0.004
==== e(  10) =     1.25992 eV ==== 
     psi = 0.017*[#   9]+0.017*[#  10]+0.007*[#   3]+0.007*[#   7]+0.006*[#   1]+
          +0.006*[#   5]+0.006*[#   2]+0.006*[#   6]+
    |psi|^2 = 0.073
==== e(  11) =     1.35112 eV ==== 
     psi = 0.001*[#   1]+0.001*[#   5]+
    |psi|^2 = 0.005
==== e(  12) =     1.76715 eV ==== 
     psi = 0.016*[#   9]+0.016*[#  10]+0.003*[#   3]+0.003*[#   7]+0.002*[#   1]+
          +0.002*[#   5]+
    |psi|^2 = 0.041
==== e(  13) =     1.91524 eV ==== 
     psi = 
    |psi|^2 = 0.002
==== e(  14) =     2.04713 eV ==== 
     psi = 0.011*[#   9]+0.011*[#  10]+0.005*[#   1]+0.005*[#   3]+0.005*[#   5]+
          +0.005*[#   7]+0.004*[#   2]+0.004*[#   6]+
    |psi|^2 = 0.049
==== e(  15) =     2.10613 eV ==== 
     psi = 0.052*[#   4]+0.052*[#   8]+
    |psi|^2 = 0.105

 k =   0.0000000000  0.0000000000  1.2856279650
==== e(   1) =   -19.88930 eV ==== 
     psi = 0.343*[#   1]+0.343*[#   5]+0.073*[#   2]+0.073*[#   6]+0.057*[#   9]+
          +0.057*[#  10]+0.017*[#   3]+0.017*[#   7]+
    |psi|^2 = 0.982
==== e(   2) =   -13.40058 eV ==== 
     psi = 0.262*[#   3]+0.262*[#   7]+0.141*[#   9]+0.141*[#  10]+0.080*[#   1]+
          +0.080*[#   5]+
    |psi|^2 = 0.967
==== e(   3) =   -10.90109 eV ==== 
     psi = 0.414*[#   2]+0.414*[#   6]+0.044*[#   1]+0.044*[#   5]+0.032*[#   3]+
          +0.032*[#   7]+0.005*[#   9]+0.005*[#  10]+
    |psi|^2 = 0.991
==== e(   4) =    -8.35901 eV ==== 
     psi = 0.268*[#   3]+0.268*[#   7]+0.205*[#   9]+0.205*[#  10]+0.020*[#   2]+
          +0.020*[#   6]+0.002*[#   1]+0.002*[#   5]+
    |psi|^2 = 0.989
==== e(   5) =    -8.05369 eV ==== 
     psi = 0.495*[#   4]+0.495*[#   8]+
    |psi|^2 = 0.989
==== e(   6) =     0.66893 eV ==== 
     psi = 0.351*[#   4]+0.351*[#   8]+
    |psi|^2 = 0.701
==== e(   7) =     0.68526 eV ==== 
     psi = 0.083*[#   9]+0.083*[#  10]+0.026*[#   1]+0.026*[#   5]+0.019*[#   3]+
          +0.019*[#   7]+0.018*[#   2]+0.018*[#   6]+
    |psi|^2 = 0.294
==== e(   8) =     0.73706 eV ==== 
     psi = 0.129*[#  10]+0.128*[#   9]+0.025*[#   1]+0.025*[#   5]+0.013*[#   3]+
          +0.013*[#   7]+0.004*[#   2]+0.004*[#   6]+
    |psi|^2 = 0.339
==== e(   9) =     1.53010 eV ==== 
     psi = 0.002*[#   4]+0.002*[#   8]+
    |psi|^2 = 0.003
==== e(  10) =     1.53011 eV ==== 
     psi = 0.017*[#   9]+0.017*[#  10]+0.008*[#   1]+0.008*[#   5]+0.007*[#   2]+
          +0.007*[#   6]+0.006*[#   3]+0.006*[#   7]+
    |psi|^2 = 0.078
==== e(  11) =     1.64706 eV ==== 
     psi = 
    |psi|^2 = 0.004
==== e(  12) =     2.06709 eV ==== 
     psi = 0.015*[#   9]+0.015*[#  10]+0.002*[#   1]+0.002*[#   3]+0.002*[#   5]+
          +0.002*[#   7]+
    |psi|^2 = 0.040
==== e(  13) =     2.21477 eV ==== 
     psi = 
    |psi|^2 = 0.002
==== e(  14) =     2.31702 eV ==== 
     psi = 0.014*[#   9]+0.014*[#  10]+0.009*[#   1]+0.009*[#   5]+0.006*[#   2]+
          +0.006*[#   6]+0.006*[#   3]+0.006*[#   7]+
    |psi|^2 = 0.068
==== e(  15) =     2.33380 eV ==== 
     psi = 0.042*[#   4]+0.042*[#   8]+
    |psi|^2 = 0.084

 k =   0.0000000000  0.0000000000  1.4998992925
==== e(   1) =   -19.65346 eV ==== 
     psi = 0.329*[#   1]+0.329*[#   5]+0.093*[#   2]+0.093*[#   6]+0.054*[#   9]+
          +0.054*[#  10]+0.016*[#   3]+0.016*[#   7]+
    |psi|^2 = 0.982
==== e(   2) =   -13.23101 eV ==== 
     psi = 0.240*[#   3]+0.240*[#   7]+0.147*[#   9]+0.147*[#  10]+0.094*[#   1]+
          +0.094*[#   5]+0.005*[#   2]+0.005*[#   6]+
    |psi|^2 = 0.972
==== e(   3) =   -11.45703 eV ==== 
     psi = 0.397*[#   2]+0.397*[#   6]+0.052*[#   3]+0.052*[#   7]+0.043*[#   1]+
          +0.043*[#   5]+0.002*[#   9]+0.002*[#  10]+
    |psi|^2 = 0.988
==== e(   4) =    -8.45190 eV ==== 
     psi = 0.271*[#   3]+0.271*[#   7]+0.202*[#   9]+0.202*[#  10]+0.021*[#   2]+
          +0.021*[#   6]+0.001*[#   1]+0.001*[#   5]+
    |psi|^2 = 0.990
==== e(   5) =    -7.74168 eV ==== 
     psi = 0.496*[#   4]+0.496*[#   8]+
    |psi|^2 = 0.992
==== e(   6) =     0.60627 eV ==== 
     psi = 0.403*[#   4]+0.403*[#   8]+
    |psi|^2 = 0.805
==== e(   7) =     0.93075 eV ==== 
     psi = 0.077*[#   9]+0.077*[#  10]+0.037*[#   1]+0.037*[#   5]+0.030*[#   2]+
          +0.030*[#   6]+0.021*[#   3]+0.021*[#   7]+
    |psi|^2 = 0.330
==== e(   8) =     1.06918 eV ==== 
     psi = 0.139*[#   9]+0.139*[#  10]+0.025*[#   1]+0.025*[#   5]+0.011*[#   3]+
          +0.011*[#   7]+
    |psi|^2 = 0.352
==== e(   9) =     1.84511 eV ==== 
     psi = 0.016*[#   9]+0.016*[#  10]+0.010*[#   1]+0.010*[#   5]+0.008*[#   2]+
          +0.008*[#   6]+0.005*[#   3]+0.005*[#   7]+
    |psi|^2 = 0.079
==== e(  10) =     1.88402 eV ==== 
     psi = 0.001*[#   4]+0.001*[#   8]+
    |psi|^2 = 0.002
==== e(  11) =     1.99816 eV ==== 
     psi = 
    |psi|^2 = 0.003
==== e(  12) =     2.42117 eV ==== 
     psi = 0.014*[#   9]+0.014*[#  10]+0.002*[#   1]+0.002*[#   5]+0.002*[#   3]+
          +0.002*[#   7]+
    |psi|^2 = 0.038
==== e(  13) =     2.56566 eV ==== 
     psi = 0.003*[#   4]+0.003*[#   8]+
    |psi|^2 = 0.007
==== e(  14) =     2.60743 eV ==== 
     psi = 0.026*[#   4]+0.026*[#   8]+
    |psi|^2 = 0.052
==== e(  15) =     2.61767 eV ==== 
     psi = 0.016*[#   9]+0.016*[#  10]+0.014*[#   1]+0.014*[#   5]+0.008*[#   2]+
          +0.008*[#   6]+0.006*[#   3]+0.006*[#   7]+
    |psi|^2 = 0.086

 k =   0.0000000000  0.0000000000  1.7141706200
==== e(   1) =   -19.38299 eV ==== 
     psi = 0.314*[#   1]+0.314*[#   5]+0.112*[#   2]+0.112*[#   6]+0.050*[#   9]+
          +0.050*[#  10]+0.014*[#   3]+0.014*[#   7]+
    |psi|^2 = 0.982
==== e(   2) =   -13.12099 eV ==== 
     psi = 0.179*[#   3]+0.179*[#   7]+0.147*[#   9]+0.147*[#  10]+0.125*[#   1]+
          +0.125*[#   5]+0.039*[#   2]+0.039*[#   6]+
    |psi|^2 = 0.979
==== e(   3) =   -11.94327 eV ==== 
     psi = 0.349*[#   2]+0.349*[#   6]+0.112*[#   3]+0.112*[#   7]+0.024*[#   1]+
          +0.024*[#   5]+0.006*[#   9]+0.006*[#  10]+
    |psi|^2 = 0.982
==== e(   4) =    -8.57524 eV ==== 
     psi = 0.273*[#   3]+0.273*[#   7]+0.196*[#   9]+0.196*[#  10]+0.025*[#   2]+
          +0.025*[#   6]+0.001*[#   1]+0.001*[#   5]+
    |psi|^2 = 0.990
==== e(   5) =    -7.38590 eV ==== 
     psi = 0.497*[#   4]+0.497*[#   8]+
    |psi|^2 = 0.994
==== e(   6) =     0.39496 eV ==== 
     psi = 0.445*[#   4]+0.445*[#   8]+
    |psi|^2 = 0.891
==== e(   7) =     1.17608 eV ==== 
     psi = 0.087*[#   9]+0.087*[#  10]+0.051*[#   1]+0.051*[#   5]+0.041*[#   2]+
          +0.041*[#   6]+0.021*[#   3]+0.021*[#   7]+
    |psi|^2 = 0.401
==== e(   8) =     1.45466 eV ==== 
     psi = 0.134*[#   9]+0.134*[#  10]+0.025*[#   1]+0.025*[#   5]+0.011*[#   3]+
          +0.011*[#   7]+
    |psi|^2 = 0.342
==== e(   9) =     2.20734 eV ==== 
     psi = 0.014*[#   9]+0.014*[#  10]+0.011*[#   1]+0.011*[#   5]+0.007*[#   2]+
          +0.007*[#   6]+0.004*[#   3]+0.004*[#   7]+
    |psi|^2 = 0.073
==== e(  10) =     2.29211 eV ==== 
     psi = 
    |psi|^2 = 0.002
==== e(  11) =     2.40417 eV ==== 
     psi = 
    |psi|^2 = 0.003
==== e(  12) =     2.82924 eV ==== 
     psi = 0.014*[#   9]+0.014*[#  10]+0.003*[#   1]+0.003*[#   5]+0.002*[#   3]+
          +0.002*[#   7]+
    |psi|^2 = 0.037
==== e(  13) =     2.92185 eV ==== 
     psi = 0.014*[#   4]+0.014*[#   8]+
    |psi|^2 = 0.029
==== e(  14) =     2.95317 eV ==== 
     psi = 0.016*[#   1]+0.016*[#   5]+0.014*[#   9]+0.014*[#  10]+0.008*[#   2]+
          +0.008*[#   6]+0.004*[#   3]+0.004*[#   7]+
    |psi|^2 = 0.085
==== e(  15) =     2.98397 eV ==== 
     psi = 0.002*[#   4]+0.002*[#   8]+
    |psi|^2 = 0.003

 k =   0.0000000000  0.0000000000  1.9284419475
==== e(   1) =   -19.07855 eV ==== 
     psi = 0.299*[#   1]+0.299*[#   5]+0.132*[#   2]+0.132*[#   6]+0.048*[#   9]+
          +0.047*[#  10]+0.013*[#   3]+0.013*[#   7]+
    |psi|^2 = 0.981
==== e(   2) =   -13.25910 eV ==== 
     psi = 0.162*[#   1]+0.162*[#   2]+0.162*[#   5]+0.162*[#   6]+0.109*[#   9]+
          +0.109*[#  10]+0.062*[#   3]+0.062*[#   7]+
    |psi|^2 = 0.988
==== e(   3) =   -12.15990 eV ==== 
     psi = 0.227*[#   3]+0.227*[#   7]+0.212*[#   2]+0.212*[#   6]+0.048*[#   9]+
          +0.048*[#  10]+
    |psi|^2 = 0.975
==== e(   4) =    -8.73443 eV ==== 
     psi = 0.274*[#   3]+0.274*[#   7]+0.190*[#   9]+0.190*[#  10]+0.028*[#   2]+
          +0.028*[#   6]+0.002*[#   1]+0.002*[#   5]+
    |psi|^2 = 0.990
==== e(   5) =    -6.98638 eV ==== 
     psi = 0.498*[#   4]+0.498*[#   8]+
    |psi|^2 = 0.995
==== e(   6) =     0.02789 eV ==== 
     psi = 0.471*[#   4]+0.471*[#   8]+
    |psi|^2 = 0.942
==== e(   7) =     1.41839 eV ==== 
     psi = 0.099*[#   9]+0.099*[#  10]+0.067*[#   1]+0.067*[#   5]+0.051*[#   2]+
          +0.051*[#   6]+0.019*[#   3]+0.019*[#   7]+
    |psi|^2 = 0.472
==== e(   8) =     1.88996 eV ==== 
     psi = 0.128*[#   9]+0.128*[#  10]+0.023*[#   1]+0.023*[#   5]+0.012*[#   3]+
          +0.012*[#   7]+
    |psi|^2 = 0.327
==== e(   9) =     2.62242 eV ==== 
     psi = 0.011*[#   1]+0.011*[#   5]+0.011*[#   9]+0.011*[#  10]+0.006*[#   2]+
          +0.006*[#   6]+0.002*[#   3]+0.002*[#   7]+
    |psi|^2 = 0.062
==== e(  10) =     2.75433 eV ==== 
     psi = 
    |psi|^2 = 0.001
==== e(  11) =     2.86472 eV ==== 
     psi = 
    |psi|^2 = 0.003
==== e(  12) =     3.29094 eV ==== 
     psi = 0.013*[#   9]+0.013*[#  10]+0.003*[#   1]+0.003*[#   5]+0.002*[#   3]+
          +0.002*[#   7]+
    |psi|^2 = 0.036
==== e(  13) =     3.31253 eV ==== 
     psi = 0.007*[#   4]+0.007*[#   8]+
    |psi|^2 = 0.013
==== e(  14) =     3.34218 eV ==== 
     psi = 0.016*[#   1]+0.016*[#   5]+0.011*[#   9]+0.011*[#  10]+0.006*[#   2]+
          +0.006*[#   6]+0.002*[#   3]+0.002*[#   7]+
    |psi|^2 = 0.071
==== e(  15) =     3.44570 eV ==== 
     psi = 
    |psi|^2 = 0.001

 k =   0.0000000000  0.0000000000  2.1427132750
==== e(   1) =   -18.74135 eV ==== 
     psi = 0.284*[#   1]+0.284*[#   5]+0.150*[#   2]+0.150*[#   6]+0.045*[#   9]+
          +0.045*[#  10]+0.011*[#   3]+0.011*[#   7]+
    |psi|^2 = 0.981
==== e(   2) =   -13.70236 eV ==== 
     psi = 0.248*[#   2]+0.248*[#   6]+0.167*[#   1]+0.167*[#   5]+0.069*[#   9]+
          +0.069*[#  10]+0.011*[#   3]+0.011*[#   7]+
    |psi|^2 = 0.990
==== e(   3) =   -12.04218 eV ==== 
     psi = 0.276*[#   3]+0.276*[#   7]+0.112*[#   2]+0.112*[#   6]+0.092*[#   9]+
          +0.092*[#  10]+0.007*[#   1]+0.007*[#   5]+
    |psi|^2 = 0.975
==== e(   4) =    -8.93213 eV ==== 
     psi = 0.275*[#   3]+0.275*[#   7]+0.183*[#   9]+0.183*[#  10]+0.033*[#   2]+
          +0.033*[#   6]+0.004*[#   1]+0.004*[#   5]+
    |psi|^2 = 0.990
==== e(   5) =    -6.54474 eV ==== 
     psi = 0.498*[#   4]+0.498*[#   8]+
    |psi|^2 = 0.996
==== e(   6) =    -0.46599 eV ==== 
     psi = 0.483*[#   4]+0.483*[#   8]+
    |psi|^2 = 0.966
==== e(   7) =     1.66552 eV ==== 
     psi = 0.108*[#   9]+0.108*[#  10]+0.081*[#   1]+0.081*[#   5]+0.058*[#   2]+
          +0.058*[#   6]+0.016*[#   3]+0.016*[#   7]+
    |psi|^2 = 0.526
==== e(   8) =     2.37346 eV ==== 
     psi = 0.120*[#   9]+0.120*[#  10]+0.022*[#   1]+0.022*[#   5]+0.012*[#   3]+
          +0.012*[#   7]+
    |psi|^2 = 0.309
==== e(   9) =     3.09621 eV ==== 
     psi = 0.010*[#   1]+0.010*[#   5]+0.008*[#   9]+0.008*[#  10]+0.005*[#   2]+
          +0.005*[#   6]+0.001*[#   3]+0.001*[#   7]+
    |psi|^2 = 0.050
==== e(  10) =     3.27054 eV ==== 
     psi = 
    |psi|^2 = 0.001
==== e(  11) =     3.37939 eV ==== 
     psi = 
    |psi|^2 = 0.003
==== e(  12) =     3.77141 eV ==== 
     psi = 0.002*[#   4]+0.002*[#   8]+
    |psi|^2 = 0.005
==== e(  13) =     3.79279 eV ==== 
     psi = 0.011*[#   1]+0.011*[#   5]+0.008*[#   9]+0.008*[#  10]+0.004*[#   2]+
          +0.004*[#   6]+0.002*[#   3]+0.002*[#   7]+
    |psi|^2 = 0.050
==== e(  14) =     3.81109 eV ==== 
     psi = 0.012*[#   9]+0.012*[#  10]+0.005*[#   1]+0.005*[#   5]+0.002*[#   3]+
          +0.002*[#   7]+
    |psi|^2 = 0.039
==== e(  15) =     3.96323 eV ==== 
     psi = 
    |psi|^2 = 0.000

 k =   0.0000000000  0.0000000000  2.3569846025
==== e(   1) =   -18.37345 eV ==== 
     psi = 0.270*[#   1]+0.270*[#   5]+0.168*[#   2]+0.168*[#   6]+0.043*[#   9]+
          +0.043*[#  10]+0.010*[#   3]+0.010*[#   7]+
    |psi|^2 = 0.981
==== e(   2) =   -14.25033 eV ==== 
     psi = 0.269*[#   2]+0.269*[#   6]+0.171*[#   1]+0.171*[#   5]+0.053*[#   9]+
          +0.053*[#  10]+0.002*[#   3]+0.002*[#   7]+
    |psi|^2 = 0.989
==== e(   3) =   -11.78526 eV ==== 
     psi = 0.285*[#   3]+0.285*[#   7]+0.112*[#   9]+0.112*[#  10]+0.077*[#   2]+
          +0.077*[#   6]+0.015*[#   1]+0.015*[#   5]+
    |psi|^2 = 0.977
==== e(   4) =    -9.17085 eV ==== 
     psi = 0.276*[#   3]+0.276*[#   7]+0.175*[#   9]+0.175*[#  10]+0.037*[#   2]+
          +0.037*[#   6]+0.007*[#   1]+0.007*[#   5]+
    |psi|^2 = 0.990
==== e(   5) =    -6.06431 eV ==== 
     psi = 0.498*[#   4]+0.498*[#   8]+
    |psi|^2 = 0.997
==== e(   6) =    -1.04342 eV ==== 
     psi = 0.488*[#   4]+0.488*[#   8]+
    |psi|^2 = 0.976
==== e(   7) =     1.93477 eV ==== 
     psi = 0.113*[#   9]+0.113*[#  10]+0.091*[#   1]+0.091*[#   5]+0.060*[#   2]+
          +0.060*[#   6]+0.013*[#   3]+0.013*[#   7]+
    |psi|^2 = 0.554
==== e(   8) =     2.90370 eV ==== 
     psi = 0.111*[#   9]+0.111*[#  10]+0.020*[#   1]+0.020*[#   5]+0.013*[#   3]+
          +0.013*[#   7]+
    |psi|^2 = 0.289
==== e(   9) =     3.63142 eV ==== 
     psi = 0.009*[#   1]+0.009*[#   5]+0.006*[#   9]+0.006*[#  10]+0.004*[#   2]+
          +0.004*[#   6]+
    |psi|^2 = 0.040
==== e(  10) =     3.84048 eV ==== 
     psi = 
    |psi|^2 = 0.000
==== e(  11) =     3.94752 eV ==== 
     psi = 
    |psi|^2 = 0.004
==== e(  12) =     4.29837 eV ==== 
     psi = 
    |psi|^2 = 0.001
==== e(  13) =     4.31830 eV ==== 
     psi = 0.011*[#   1]+0.011*[#   5]+0.005*[#   9]+0.005*[#  10]+0.004*[#   2]+
          +0.004*[#   6]+
    |psi|^2 = 0.041
==== e(  14) =     4.37849 eV ==== 
     psi = 0.013*[#   9]+0.013*[#  10]+0.003*[#   1]+0.003*[#   5]+0.002*[#   3]+
          +0.002*[#   7]+
    |psi|^2 = 0.036
==== e(  15) =     4.53522 eV ==== 
     psi = 
    |psi|^2 = 0.000

 k =   0.0000000000  0.0000000000  2.5712559300
==== e(   1) =   -17.97760 eV ==== 
     psi = 0.256*[#   1]+0.256*[#   5]+0.185*[#   2]+0.185*[#   6]+0.041*[#   9]+
          +0.041*[#  10]+0.009*[#   3]+0.009*[#   7]+
    |psi|^2 = 0.982
==== e(   2) =   -14.81170 eV ==== 
     psi = 0.269*[#   2]+0.269*[#   6]+0.178*[#   1]+0.178*[#   5]+0.046*[#   9]+
          +0.046*[#  10]+
    |psi|^2 = 0.988
==== e(   3) =   -11.47715 eV ==== 
     psi = 0.285*[#   3]+0.285*[#   7]+0.124*[#   9]+0.124*[#  10]+0.062*[#   2]+
          +0.062*[#   6]+0.019*[#   1]+0.019*[#   5]+
    |psi|^2 = 0.980
==== e(   4) =    -9.44545 eV ==== 
     psi = 0.277*[#   3]+0.277*[#   7]+0.168*[#   9]+0.168*[#  10]+0.040*[#   2]+
          +0.040*[#   6]+0.010*[#   1]+0.010*[#   5]+
    |psi|^2 = 0.990
==== e(   5) =    -5.54882 eV ==== 
     psi = 0.498*[#   4]+0.498*[#   8]+
    |psi|^2 = 0.996
==== e(   6) =    -1.66356 eV ==== 
     psi = 0.490*[#   4]+0.490*[#   8]+
    |psi|^2 = 0.980
==== e(   7) =     2.24475 eV ==== 
     psi = 0.114*[#   9]+0.114*[#  10]+0.096*[#   1]+0.096*[#   5]+0.059*[#   2]+
          +0.059*[#   6]+0.011*[#   3]+0.011*[#   7]+
    |psi|^2 = 0.558
==== e(   8) =     3.47840 eV ==== 
     psi = 0.099*[#   9]+0.099*[#  10]+0.017*[#   1]+0.017*[#   5]+0.014*[#   3]+
          +0.014*[#   7]+0.001*[#   2]+0.001*[#   6]+
    |psi|^2 = 0.261
==== e(   9) =     4.22744 eV ==== 
     psi = 0.009*[#   1]+0.009*[#   5]+0.005*[#   9]+0.005*[#  10]+0.003*[#   2]+
          +0.003*[#   6]+
    |psi|^2 = 0.034
==== e(  10) =     4.46385 eV ==== 
     psi = 
    |psi|^2 = 0.000
==== e(  11) =     4.56775 eV ==== 
     psi = 0.001*[#   1]+0.001*[#   5]+
    |psi|^2 = 0.005
==== e(  12) =     4.89022 eV ==== 
     psi = 
    |psi|^2 = 0.000
==== e(  13) =     4.90563 eV ==== 
     psi = 0.010*[#   1]+0.010*[#   5]+0.005*[#   9]+0.005*[#  10]+0.003*[#   2]+
          +0.003*[#   6]+
    |psi|^2 = 0.037
==== e(  14) =     4.99743 eV ==== 
     psi = 0.020*[#   9]+0.020*[#  10]+0.007*[#   1]+0.007*[#   5]+0.004*[#   3]+
          +0.004*[#   7]+
    |psi|^2 = 0.061
==== e(  15) =     5.16129 eV ==== 
     psi = 
    |psi|^2 = 0.000

 k =   0.0000000000  0.0000000000  2.7855272575
==== e(   1) =   -17.56219 eV ==== 
     psi = 0.242*[#   1]+0.242*[#   5]+0.201*[#   2]+0.201*[#   6]+0.040*[#   9]+
          +0.040*[#  10]+0.007*[#   3]+0.007*[#   7]+
    |psi|^2 = 0.982
==== e(   2) =   -15.35382 eV ==== 
     psi = 0.262*[#   2]+0.262*[#   6]+0.188*[#   1]+0.188*[#   5]+0.043*[#   9]+
          +0.043*[#  10]+
    |psi|^2 = 0.987
==== e(   3) =   -11.14467 eV ==== 
     psi = 0.284*[#   3]+0.284*[#   7]+0.132*[#   9]+0.132*[#  10]+0.056*[#   2]+
          +0.056*[#   6]+0.020*[#   1]+0.020*[#   5]+
    |psi|^2 = 0.983
==== e(   4) =    -9.74948 eV ==== 
     psi = 0.277*[#   3]+0.277*[#   7]+0.161*[#   9]+0.161*[#  10]+0.043*[#   2]+
          +0.043*[#   6]+0.014*[#   1]+0.014*[#   5]+
    |psi|^2 = 0.989
==== e(   5) =    -5.01207 eV ==== 
     psi = 0.498*[#   4]+0.497*[#   8]+
    |psi|^2 = 0.995
==== e(   6) =    -2.29148 eV ==== 
     psi = 0.492*[#   4]+0.492*[#   8]+
    |psi|^2 = 0.983
==== e(   7) =     2.60834 eV ==== 
     psi = 0.111*[#   9]+0.111*[#  10]+0.097*[#   1]+0.097*[#   5]+0.055*[#   2]+
          +0.055*[#   6]+0.009*[#   3]+0.009*[#   7]+
    |psi|^2 = 0.543
==== e(   8) =     4.08747 eV ==== 
     psi = 0.071*[#   9]+0.071*[#  10]+0.012*[#   3]+0.012*[#   7]+0.009*[#   1]+
          +0.009*[#   5]+0.003*[#   2]+0.003*[#   6]+
    |psi|^2 = 0.191
==== e(   9) =     4.68932 eV ==== 
     psi = 0.121*[#   9]+0.121*[#  10]+0.085*[#   1]+0.085*[#   5]+0.024*[#   2]+
          +0.024*[#   6]+0.015*[#   3]+0.015*[#   7]+
    |psi|^2 = 0.491
==== e(  10) =     4.89113 eV ==== 
     psi = 0.010*[#   1]+0.010*[#   5]+0.008*[#   9]+0.008*[#  10]+0.002*[#   2]+
          +0.002*[#   6]+0.001*[#   3]+0.001*[#   7]+
    |psi|^2 = 0.042
==== e(  11) =     5.13973 eV ==== 
     psi = 
    |psi|^2 = 0.000
==== e(  12) =     5.23540 eV ==== 
     psi = 0.002*[#   9]+0.002*[#  10]+0.002*[#   1]+0.002*[#   5]+
    |psi|^2 = 0.010
==== e(  13) =     5.54333 eV ==== 
     psi = 
    |psi|^2 = 0.000
==== e(  14) =     5.56365 eV ==== 
     psi = 0.008*[#   1]+0.008*[#   5]+0.004*[#   9]+0.004*[#  10]+0.002*[#   2]+
          +0.002*[#   6]+
    |psi|^2 = 0.029
==== e(  15) =     5.68177 eV ==== 
     psi = 0.007*[#   9]+0.007*[#  10]+0.002*[#   3]+0.002*[#   7]+0.001*[#   1]+
          +0.001*[#   5]+
    |psi|^2 = 0.019

 k =   0.0000000000  0.0000000000  2.9997985850
==== e(   1) =   -17.15527 eV ==== 
     psi = 0.230*[#   1]+0.230*[#   5]+0.216*[#   2]+0.216*[#   6]+0.039*[#   9]+
          +0.039*[#  10]+0.006*[#   3]+0.006*[#   7]+
    |psi|^2 = 0.982
==== e(   2) =   -15.83929 eV ==== 
     psi = 0.252*[#   2]+0.252*[#   6]+0.197*[#   1]+0.197*[#   5]+0.042*[#   9]+
          +0.042*[#  10]+0.001*[#   3]+0.001*[#   7]+
    |psi|^2 = 0.986
==== e(   3) =   -10.80578 eV ==== 
     psi = 0.283*[#   3]+0.283*[#   7]+0.138*[#   9]+0.138*[#  10]+0.052*[#   2]+
          +0.052*[#   6]+0.019*[#   1]+0.019*[#   5]+
    |psi|^2 = 0.985
==== e(   4) =   -10.07064 eV ==== 
     psi = 0.277*[#   7]+0.277*[#   3]+0.155*[#   9]+0.155*[#  10]+0.045*[#   2]+
          +0.045*[#   6]+0.017*[#   1]+0.017*[#   5]+
    |psi|^2 = 0.988
==== e(   5) =    -4.48861 eV ==== 
     psi = 0.497*[#   4]+0.497*[#   8]+
    |psi|^2 = 0.994
==== e(   6) =    -2.87559 eV ==== 
     psi = 0.493*[#   4]+0.493*[#   8]+
    |psi|^2 = 0.985
==== e(   7) =     3.02895 eV ==== 
     psi = 0.104*[#   9]+0.104*[#  10]+0.094*[#   1]+0.094*[#   5]+0.050*[#   2]+
          +0.050*[#   6]+0.007*[#   3]+0.007*[#   7]+
    |psi|^2 = 0.512
==== e(   8) =     4.08199 eV ==== 
     psi = 0.076*[#   9]+0.076*[#  10]+0.074*[#   1]+0.074*[#   5]+0.034*[#   2]+
          +0.034*[#   6]+0.006*[#   3]+0.006*[#   7]+
    |psi|^2 = 0.380
==== e(   9) =     4.76855 eV ==== 
     psi = 0.119*[#   9]+0.119*[#  10]+0.028*[#   1]+0.028*[#   5]+0.022*[#   3]+
          +0.022*[#   7]+
    |psi|^2 = 0.338
==== e(  10) =     5.59653 eV ==== 
     psi = 0.009*[#   1]+0.009*[#   5]+0.006*[#   9]+0.006*[#  10]+0.001*[#   2]+
          +0.001*[#   6]+
    |psi|^2 = 0.035
==== e(  11) =     5.86628 eV ==== 
     psi = 
    |psi|^2 = 0.000
==== e(  12) =     5.87287 eV ==== 
     psi = 0.028*[#   9]+0.028*[#  10]+0.008*[#   1]+0.008*[#   5]+0.007*[#   3]+
          +0.007*[#   7]+0.002*[#   2]+0.002*[#   6]+
    |psi|^2 = 0.090
==== e(  13) =     6.22965 eV ==== 
     psi = 0.046*[#   9]+0.046*[#  10]+0.014*[#   3]+0.014*[#   7]+0.007*[#   1]+
          +0.007*[#   5]+0.002*[#   2]+0.002*[#   6]+
    |psi|^2 = 0.138
==== e(  14) =     6.25228 eV ==== 
     psi = 
    |psi|^2 = 0.000
==== e(  15) =     6.27681 eV ==== 
     psi = 0.004*[#   1]+0.004*[#   5]+0.003*[#   2]+0.003*[#   6]+
    |psi|^2 = 0.015

 k =   0.0000000000  0.0000000000 -3.2140699124
==== e(   1) =   -16.92423 eV ==== 
     psi = 0.224*[#   1]+0.224*[#   5]+0.223*[#   2]+0.223*[#   6]+0.038*[#   9]+
          +0.038*[#  10]+0.006*[#   3]+0.006*[#   7]+
    |psi|^2 = 0.983
==== e(   2) =   -16.09855 eV ==== 
     psi = 0.245*[#   2]+0.245*[#   6]+0.203*[#   1]+0.203*[#   5]+0.043*[#   9]+
          +0.043*[#  10]+0.001*[#   3]+0.001*[#   7]+
    |psi|^2 = 0.985
==== e(   3) =   -10.55567 eV ==== 
     psi = 0.287*[#   3]+0.287*[#   7]+0.139*[#   9]+0.139*[#  10]+0.052*[#   2]+
          +0.052*[#   6]+0.016*[#   1]+0.016*[#   5]+
    |psi|^2 = 0.987
==== e(   4) =   -10.31827 eV ==== 
     psi = 0.273*[#   7]+0.273*[#   3]+0.154*[#  10]+0.154*[#   9]+0.046*[#   2]+
          +0.046*[#   6]+0.021*[#   1]+0.021*[#   5]+
    |psi|^2 = 0.987
==== e(   5) =    -4.18708 eV ==== 
     psi = 0.497*[#   4]+0.497*[#   8]+
    |psi|^2 = 0.993
==== e(   6) =    -3.19985 eV ==== 
     psi = 0.493*[#   4]+0.493*[#   8]+
    |psi|^2 = 0.986
==== e(   7) =     3.41525 eV ==== 
     psi = 0.090*[#   9]+0.090*[#  10]+0.087*[#   1]+0.087*[#   5]+0.050*[#   2]+
          +0.050*[#   6]+0.006*[#   3]+0.006*[#   7]+
    |psi|^2 = 0.466
==== e(   8) =     3.64420 eV ==== 
     psi = 0.104*[#   9]+0.104*[#  10]+0.089*[#   1]+0.088*[#   5]+0.034*[#   2]+
          +0.034*[#   6]+0.009*[#   3]+0.009*[#   7]+
    |psi|^2 = 0.470
==== e(   9) =     5.40065 eV ==== 
     psi = 0.095*[#   9]+0.095*[#  10]+0.023*[#   3]+0.023*[#   7]+0.015*[#   1]+
          +0.015*[#   5]+0.003*[#   2]+0.003*[#   6]+
    |psi|^2 = 0.272
==== e(  10) =     5.47012 eV ==== 
     psi = 0.093*[#   9]+0.093*[#  10]+0.023*[#   1]+0.023*[#   5]+0.020*[#   3]+
          +0.020*[#   7]+
    |psi|^2 = 0.274
==== e(  11) =     6.33551 eV ==== 
     psi = 0.009*[#   1]+0.009*[#   5]+0.002*[#   9]+0.002*[#  10]+0.002*[#   2]+
          +0.002*[#   6]+
    |psi|^2 = 0.026
==== e(  12) =     6.39152 eV ==== 
     psi = 0.006*[#   1]+0.006*[#   5]+0.003*[#   9]+0.003*[#  10]+
    |psi|^2 = 0.021
==== e(  13) =     6.61985 eV ==== 
     psi = 
    |psi|^2 = 0.000
==== e(  14) =     6.63442 eV ==== 
     psi = 
    |psi|^2 = 0.002
==== e(  15) =     6.74927 eV ==== 
     psi = 0.002*[#   1]+0.002*[#   5]+
    |psi|^2 = 0.003

 k =   0.0000000000  0.0000000000 -2.9997985850
==== e(   1) =   -17.15527 eV ==== 
     psi = 0.230*[#   1]+0.230*[#   5]+0.216*[#   2]+0.216*[#   6]+0.039*[#   9]+
          +0.039*[#  10]+0.006*[#   3]+0.006*[#   7]+
    |psi|^2 = 0.982
==== e(   2) =   -15.83929 eV ==== 
     psi = 0.252*[#   2]+0.252*[#   6]+0.197*[#   1]+0.197*[#   5]+0.042*[#   9]+
          +0.042*[#  10]+0.001*[#   3]+0.001*[#   7]+
    |psi|^2 = 0.986
==== e(   3) =   -10.80578 eV ==== 
     psi = 0.283*[#   3]+0.283*[#   7]+0.138*[#   9]+0.138*[#  10]+0.052*[#   2]+
          +0.052*[#   6]+0.019*[#   1]+0.019*[#   5]+
    |psi|^2 = 0.985
==== e(   4) =   -10.07064 eV ==== 
     psi = 0.277*[#   7]+0.277*[#   3]+0.155*[#   9]+0.155*[#  10]+0.045*[#   2]+
          +0.045*[#   6]+0.017*[#   1]+0.017*[#   5]+
    |psi|^2 = 0.988
==== e(   5) =    -4.48861 eV ==== 
     psi = 0.497*[#   4]+0.497*[#   8]+
    |psi|^2 = 0.994
==== e(   6) =    -2.87559 eV ==== 
     psi = 0.493*[#   4]+0.493*[#   8]+
    |psi|^2 = 0.985
==== e(   7) =     3.02895 eV ==== 
     psi = 0.104*[#   9]+0.104*[#  10]+0.094*[#   1]+0.094*[#   5]+0.050*[#   2]+
          +0.050*[#   6]+0.007*[#   3]+0.007*[#   7]+
    |psi|^2 = 0.512
==== e(   8) =     4.08199 eV ==== 
     psi = 0.076*[#   9]+0.076*[#  10]+0.074*[#   1]+0.074*[#   5]+0.034*[#   2]+
          +0.034*[#   6]+0.006*[#   3]+0.006*[#   7]+
    |psi|^2 = 0.380
==== e(   9) =     4.76855 eV ==== 
     psi = 0.119*[#   9]+0.119*[#  10]+0.028*[#   1]+0.028*[#   5]+0.022*[#   3]+
          +0.022*[#   7]+
    |psi|^2 = 0.338
==== e(  10) =     5.59653 eV ==== 
     psi = 0.009*[#   1]+0.009*[#   5]+0.006*[#   9]+0.006*[#  10]+0.001*[#   2]+
          +0.001*[#   6]+
    |psi|^2 = 0.035
==== e(  11) =     5.86628 eV ==== 
     psi = 
    |psi|^2 = 0.000
==== e(  12) =     5.87287 eV ==== 
     psi = 0.028*[#   9]+0.028*[#  10]+0.008*[#   1]+0.008*[#   5]+0.007*[#   3]+
          +0.007*[#   7]+0.002*[#   2]+0.002*[#   6]+
    |psi|^2 = 0.090
==== e(  13) =     6.22965 eV ==== 
     psi = 0.046*[#   9]+0.046*[#  10]+0.014*[#   3]+0.014*[#   7]+0.007*[#   1]+
          +0.007*[#   5]+0.002*[#   2]+0.002*[#   6]+
    |psi|^2 = 0.138
==== e(  14) =     6.25228 eV ==== 
     psi = 
    |psi|^2 = 0.000
==== e(  15) =     6.27681 eV ==== 
     psi = 0.004*[#   1]+0.004*[#   5]+0.003*[#   2]+0.003*[#   6]+
    |psi|^2 = 0.015

 k =   0.0000000000  0.0000000000 -2.7855272575
==== e(   1) =   -17.56219 eV ==== 
     psi = 0.242*[#   1]+0.242*[#   5]+0.201*[#   2]+0.201*[#   6]+0.040*[#   9]+
          +0.040*[#  10]+0.007*[#   3]+0.007*[#   7]+
    |psi|^2 = 0.982
==== e(   2) =   -15.35382 eV ==== 
     psi = 0.262*[#   2]+0.262*[#   6]+0.188*[#   1]+0.188*[#   5]+0.043*[#   9]+
          +0.043*[#  10]+
    |psi|^2 = 0.987
==== e(   3) =   -11.14467 eV ==== 
     psi = 0.284*[#   3]+0.284*[#   7]+0.132*[#   9]+0.132*[#  10]+0.056*[#   2]+
          +0.056*[#   6]+0.020*[#   1]+0.020*[#   5]+
    |psi|^2 = 0.983
==== e(   4) =    -9.74948 eV ==== 
     psi = 0.277*[#   3]+0.277*[#   7]+0.161*[#   9]+0.161*[#  10]+0.043*[#   2]+
          +0.043*[#   6]+0.014*[#   1]+0.014*[#   5]+
    |psi|^2 = 0.989
==== e(   5) =    -5.01207 eV ==== 
     psi = 0.498*[#   4]+0.497*[#   8]+
    |psi|^2 = 0.995
==== e(   6) =    -2.29148 eV ==== 
     psi = 0.492*[#   4]+0.492*[#   8]+
    |psi|^2 = 0.983
==== e(   7) =     2.60834 eV ==== 
     psi = 0.111*[#   9]+0.111*[#  10]+0.097*[#   1]+0.097*[#   5]+0.055*[#   2]+
          +0.055*[#   6]+0.009*[#   3]+0.009*[#   7]+
    |psi|^2 = 0.543
==== e(   8) =     4.08747 eV ==== 
     psi = 0.071*[#   9]+0.071*[#  10]+0.012*[#   3]+0.012*[#   7]+0.009*[#   1]+
          +0.009*[#   5]+0.003*[#   2]+0.003*[#   6]+
    |psi|^2 = 0.191
==== e(   9) =     4.68932 eV ==== 
     psi = 0.121*[#   9]+0.121*[#  10]+0.085*[#   1]+0.085*[#   5]+0.024*[#   2]+
          +0.024*[#   6]+0.015*[#   3]+0.015*[#   7]+
    |psi|^2 = 0.491
==== e(  10) =     4.89113 eV ==== 
     psi = 0.010*[#   1]+0.010*[#   5]+0.008*[#   9]+0.008*[#  10]+0.002*[#   2]+
          +0.002*[#   6]+0.001*[#   3]+0.001*[#   7]+
    |psi|^2 = 0.042
==== e(  11) =     5.13973 eV ==== 
     psi = 
    |psi|^2 = 0.000
==== e(  12) =     5.23540 eV ==== 
     psi = 0.002*[#   9]+0.002*[#  10]+0.002*[#   1]+0.002*[#   5]+
    |psi|^2 = 0.010
==== e(  13) =     5.54333 eV ==== 
     psi = 
    |psi|^2 = 0.000
==== e(  14) =     5.56365 eV ==== 
     psi = 0.008*[#   1]+0.008*[#   5]+0.004*[#   9]+0.004*[#  10]+0.002*[#   2]+
          +0.002*[#   6]+
    |psi|^2 = 0.029
==== e(  15) =     5.68177 eV ==== 
     psi = 0.007*[#   9]+0.007*[#  10]+0.002*[#   3]+0.002*[#   7]+0.001*[#   1]+
          +0.001*[#   5]+
    |psi|^2 = 0.019

 k =   0.0000000000  0.0000000000 -2.5712559300
==== e(   1) =   -17.97760 eV ==== 
     psi = 0.256*[#   1]+0.256*[#   5]+0.185*[#   2]+0.185*[#   6]+0.041*[#   9]+
          +0.041*[#  10]+0.009*[#   3]+0.009*[#   7]+
    |psi|^2 = 0.982
==== e(   2) =   -14.81170 eV ==== 
     psi = 0.269*[#   2]+0.269*[#   6]+0.178*[#   1]+0.178*[#   5]+0.046*[#   9]+
          +0.046*[#  10]+
    |psi|^2 = 0.988
==== e(   3) =   -11.47715 eV ==== 
     psi = 0.285*[#   3]+0.285*[#   7]+0.124*[#   9]+0.124*[#  10]+0.062*[#   2]+
          +0.062*[#   6]+0.019*[#   1]+0.019*[#   5]+
    |psi|^2 = 0.980
==== e(   4) =    -9.44545 eV ==== 
     psi = 0.277*[#   3]+0.277*[#   7]+0.168*[#   9]+0.168*[#  10]+0.040*[#   2]+
          +0.040*[#   6]+0.010*[#   1]+0.010*[#   5]+
    |psi|^2 = 0.990
==== e(   5) =    -5.54882 eV ==== 
     psi = 0.498*[#   4]+0.498*[#   8]+
    |psi|^2 = 0.996
==== e(   6) =    -1.66356 eV ==== 
     psi = 0.490*[#   4]+0.490*[#   8]+
    |psi|^2 = 0.980
==== e(   7) =     2.24475 eV ==== 
     psi = 0.114*[#   9]+0.114*[#  10]+0.096*[#   1]+0.096*[#   5]+0.059*[#   2]+
          +0.059*[#   6]+0.011*[#   3]+0.011*[#   7]+
    |psi|^2 = 0.558
==== e(   8) =     3.47840 eV ==== 
     psi = 0.099*[#   9]+0.099*[#  10]+0.017*[#   1]+0.017*[#   5]+0.014*[#   3]+
          +0.014*[#   7]+0.001*[#   2]+0.001*[#   6]+
    |psi|^2 = 0.261
==== e(   9) =     4.22744 eV ==== 
     psi = 0.009*[#   1]+0.009*[#   5]+0.005*[#   9]+0.005*[#  10]+0.003*[#   2]+
          +0.003*[#   6]+
    |psi|^2 = 0.034
==== e(  10) =     4.46385 eV ==== 
     psi = 
    |psi|^2 = 0.000
==== e(  11) =     4.56775 eV ==== 
     psi = 0.001*[#   1]+0.001*[#   5]+
    |psi|^2 = 0.005
==== e(  12) =     4.89022 eV ==== 
     psi = 
    |psi|^2 = 0.000
==== e(  13) =     4.90563 eV ==== 
     psi = 0.010*[#   1]+0.010*[#   5]+0.005*[#   9]+0.005*[#  10]+0.003*[#   2]+
          +0.003*[#   6]+
    |psi|^2 = 0.037
==== e(  14) =     4.99743 eV ==== 
     psi = 0.020*[#   9]+0.020*[#  10]+0.007*[#   1]+0.007*[#   5]+0.004*[#   3]+
          +0.004*[#   7]+
    |psi|^2 = 0.061
==== e(  15) =     5.16129 eV ==== 
     psi = 
    |psi|^2 = 0.000

 k =   0.0000000000  0.0000000000 -2.3569846025
==== e(   1) =   -18.37345 eV ==== 
     psi = 0.270*[#   1]+0.270*[#   5]+0.168*[#   2]+0.168*[#   6]+0.043*[#   9]+
          +0.043*[#  10]+0.010*[#   3]+0.010*[#   7]+
    |psi|^2 = 0.981
==== e(   2) =   -14.25033 eV ==== 
     psi = 0.269*[#   2]+0.269*[#   6]+0.171*[#   1]+0.171*[#   5]+0.053*[#   9]+
          +0.053*[#  10]+0.002*[#   3]+0.002*[#   7]+
    |psi|^2 = 0.989
==== e(   3) =   -11.78526 eV ==== 
     psi = 0.285*[#   3]+0.285*[#   7]+0.112*[#   9]+0.112*[#  10]+0.077*[#   2]+
          +0.077*[#   6]+0.015*[#   1]+0.015*[#   5]+
    |psi|^2 = 0.977
==== e(   4) =    -9.17085 eV ==== 
     psi = 0.276*[#   3]+0.276*[#   7]+0.175*[#   9]+0.175*[#  10]+0.037*[#   2]+
          +0.037*[#   6]+0.007*[#   1]+0.007*[#   5]+
    |psi|^2 = 0.990
==== e(   5) =    -6.06431 eV ==== 
     psi = 0.498*[#   4]+0.498*[#   8]+
    |psi|^2 = 0.997
==== e(   6) =    -1.04342 eV ==== 
     psi = 0.488*[#   4]+0.488*[#   8]+
    |psi|^2 = 0.976
==== e(   7) =     1.93477 eV ==== 
     psi = 0.113*[#   9]+0.113*[#  10]+0.091*[#   1]+0.091*[#   5]+0.060*[#   2]+
          +0.060*[#   6]+0.013*[#   3]+0.013*[#   7]+
    |psi|^2 = 0.554
==== e(   8) =     2.90370 eV ==== 
     psi = 0.111*[#   9]+0.111*[#  10]+0.020*[#   1]+0.020*[#   5]+0.013*[#   3]+
          +0.013*[#   7]+
    |psi|^2 = 0.289
==== e(   9) =     3.63142 eV ==== 
     psi = 0.009*[#   1]+0.009*[#   5]+0.006*[#   9]+0.006*[#  10]+0.004*[#   2]+
          +0.004*[#   6]+
    |psi|^2 = 0.040
==== e(  10) =     3.84048 eV ==== 
     psi = 
    |psi|^2 = 0.000
==== e(  11) =     3.94752 eV ==== 
     psi = 
    |psi|^2 = 0.004
==== e(  12) =     4.29837 eV ==== 
     psi = 
    |psi|^2 = 0.001
==== e(  13) =     4.31830 eV ==== 
     psi = 0.011*[#   1]+0.011*[#   5]+0.005*[#   9]+0.005*[#  10]+0.004*[#   2]+
          +0.004*[#   6]+
    |psi|^2 = 0.041
==== e(  14) =     4.37849 eV ==== 
     psi = 0.013*[#   9]+0.013*[#  10]+0.003*[#   1]+0.003*[#   5]+0.002*[#   3]+
          +0.002*[#   7]+
    |psi|^2 = 0.036
==== e(  15) =     4.53522 eV ==== 
     psi = 
    |psi|^2 = 0.000

 k =   0.0000000000  0.0000000000 -2.1427132750
==== e(   1) =   -18.74135 eV ==== 
     psi = 0.284*[#   1]+0.284*[#   5]+0.150*[#   2]+0.150*[#   6]+0.045*[#   9]+
          +0.045*[#  10]+0.011*[#   3]+0.011*[#   7]+
    |psi|^2 = 0.981
==== e(   2) =   -13.70236 eV ==== 
     psi = 0.248*[#   2]+0.248*[#   6]+0.167*[#   1]+0.167*[#   5]+0.069*[#   9]+
          +0.069*[#  10]+0.011*[#   3]+0.011*[#   7]+
    |psi|^2 = 0.990
==== e(   3) =   -12.04218 eV ==== 
     psi = 0.276*[#   3]+0.276*[#   7]+0.112*[#   2]+0.112*[#   6]+0.092*[#   9]+
          +0.092*[#  10]+0.007*[#   1]+0.007*[#   5]+
    |psi|^2 = 0.975
==== e(   4) =    -8.93213 eV ==== 
     psi = 0.275*[#   3]+0.275*[#   7]+0.183*[#   9]+0.183*[#  10]+0.033*[#   2]+
          +0.033*[#   6]+0.004*[#   1]+0.004*[#   5]+
    |psi|^2 = 0.990
==== e(   5) =    -6.54474 eV ==== 
     psi = 0.498*[#   4]+0.498*[#   8]+
    |psi|^2 = 0.996
==== e(   6) =    -0.46599 eV ==== 
     psi = 0.483*[#   4]+0.483*[#   8]+
    |psi|^2 = 0.966
==== e(   7) =     1.66552 eV ==== 
     psi = 0.108*[#   9]+0.108*[#  10]+0.081*[#   1]+0.081*[#   5]+0.058*[#   2]+
          +0.058*[#   6]+0.016*[#   3]+0.016*[#   7]+
    |psi|^2 = 0.526
==== e(   8) =     2.37346 eV ==== 
     psi = 0.120*[#   9]+0.120*[#  10]+0.022*[#   1]+0.022*[#   5]+0.012*[#   3]+
          +0.012*[#   7]+
    |psi|^2 = 0.309
==== e(   9) =     3.09621 eV ==== 
     psi = 0.010*[#   1]+0.010*[#   5]+0.008*[#   9]+0.008*[#  10]+0.005*[#   2]+
          +0.005*[#   6]+0.001*[#   3]+0.001*[#   7]+
    |psi|^2 = 0.050
==== e(  10) =     3.27054 eV ==== 
     psi = 
    |psi|^2 = 0.001
==== e(  11) =     3.37939 eV ==== 
     psi = 
    |psi|^2 = 0.003
==== e(  12) =     3.77141 eV ==== 
     psi = 0.002*[#   4]+0.002*[#   8]+
    |psi|^2 = 0.005
==== e(  13) =     3.79279 eV ==== 
     psi = 0.011*[#   1]+0.011*[#   5]+0.008*[#   9]+0.008*[#  10]+0.004*[#   2]+
          +0.004*[#   6]+0.002*[#   3]+0.002*[#   7]+
    |psi|^2 = 0.050
==== e(  14) =     3.81109 eV ==== 
     psi = 0.012*[#   9]+0.012*[#  10]+0.005*[#   1]+0.005*[#   5]+0.002*[#   3]+
          +0.002*[#   7]+
    |psi|^2 = 0.039
==== e(  15) =     3.96323 eV ==== 
     psi = 
    |psi|^2 = 0.000

 k =   0.0000000000  0.0000000000 -1.9284419475
==== e(   1) =   -19.07855 eV ==== 
     psi = 0.299*[#   1]+0.299*[#   5]+0.132*[#   2]+0.132*[#   6]+0.048*[#   9]+
          +0.047*[#  10]+0.013*[#   3]+0.013*[#   7]+
    |psi|^2 = 0.981
==== e(   2) =   -13.25910 eV ==== 
     psi = 0.162*[#   1]+0.162*[#   2]+0.162*[#   5]+0.162*[#   6]+0.109*[#   9]+
          +0.109*[#  10]+0.062*[#   3]+0.062*[#   7]+
    |psi|^2 = 0.988
==== e(   3) =   -12.15990 eV ==== 
     psi = 0.227*[#   3]+0.227*[#   7]+0.212*[#   2]+0.212*[#   6]+0.048*[#   9]+
          +0.048*[#  10]+
    |psi|^2 = 0.975
==== e(   4) =    -8.73443 eV ==== 
     psi = 0.274*[#   3]+0.274*[#   7]+0.190*[#   9]+0.190*[#  10]+0.028*[#   2]+
          +0.028*[#   6]+0.002*[#   1]+0.002*[#   5]+
    |psi|^2 = 0.990
==== e(   5) =    -6.98638 eV ==== 
     psi = 0.498*[#   4]+0.498*[#   8]+
    |psi|^2 = 0.995
==== e(   6) =     0.02789 eV ==== 
     psi = 0.471*[#   4]+0.471*[#   8]+
    |psi|^2 = 0.942
==== e(   7) =     1.41839 eV ==== 
     psi = 0.099*[#   9]+0.099*[#  10]+0.067*[#   1]+0.067*[#   5]+0.051*[#   2]+
          +0.051*[#   6]+0.019*[#   3]+0.019*[#   7]+
    |psi|^2 = 0.472
==== e(   8) =     1.88996 eV ==== 
     psi = 0.128*[#   9]+0.128*[#  10]+0.023*[#   1]+0.023*[#   5]+0.012*[#   3]+
          +0.012*[#   7]+
    |psi|^2 = 0.327
==== e(   9) =     2.62242 eV ==== 
     psi = 0.011*[#   1]+0.011*[#   5]+0.011*[#   9]+0.011*[#  10]+0.006*[#   2]+
          +0.006*[#   6]+0.002*[#   3]+0.002*[#   7]+
    |psi|^2 = 0.062
==== e(  10) =     2.75433 eV ==== 
     psi = 
    |psi|^2 = 0.001
==== e(  11) =     2.86472 eV ==== 
     psi = 
    |psi|^2 = 0.003
==== e(  12) =     3.29094 eV ==== 
     psi = 0.013*[#   9]+0.013*[#  10]+0.003*[#   1]+0.003*[#   5]+0.002*[#   3]+
          +0.002*[#   7]+
    |psi|^2 = 0.036
==== e(  13) =     3.31253 eV ==== 
     psi = 0.007*[#   4]+0.007*[#   8]+
    |psi|^2 = 0.013
==== e(  14) =     3.34218 eV ==== 
     psi = 0.016*[#   1]+0.016*[#   5]+0.011*[#   9]+0.011*[#  10]+0.006*[#   2]+
          +0.006*[#   6]+0.002*[#   3]+0.002*[#   7]+
    |psi|^2 = 0.071
==== e(  15) =     3.44570 eV ==== 
     psi = 
    |psi|^2 = 0.001

 k =   0.0000000000  0.0000000000 -1.7141706200
==== e(   1) =   -19.38299 eV ==== 
     psi = 0.314*[#   1]+0.314*[#   5]+0.112*[#   2]+0.112*[#   6]+0.050*[#   9]+
          +0.050*[#  10]+0.014*[#   3]+0.014*[#   7]+
    |psi|^2 = 0.982
==== e(   2) =   -13.12099 eV ==== 
     psi = 0.179*[#   3]+0.179*[#   7]+0.147*[#   9]+0.147*[#  10]+0.125*[#   1]+
          +0.125*[#   5]+0.039*[#   2]+0.039*[#   6]+
    |psi|^2 = 0.979
==== e(   3) =   -11.94327 eV ==== 
     psi = 0.349*[#   2]+0.349*[#   6]+0.112*[#   3]+0.112*[#   7]+0.024*[#   1]+
          +0.024*[#   5]+0.006*[#   9]+0.006*[#  10]+
    |psi|^2 = 0.982
==== e(   4) =    -8.57524 eV ==== 
     psi = 0.273*[#   3]+0.273*[#   7]+0.196*[#   9]+0.196*[#  10]+0.025*[#   2]+
          +0.025*[#   6]+0.001*[#   1]+0.001*[#   5]+
    |psi|^2 = 0.990
==== e(   5) =    -7.38590 eV ==== 
     psi = 0.497*[#   4]+0.497*[#   8]+
    |psi|^2 = 0.994
==== e(   6) =     0.39496 eV ==== 
     psi = 0.445*[#   4]+0.445*[#   8]+
    |psi|^2 = 0.891
==== e(   7) =     1.17608 eV ==== 
     psi = 0.087*[#   9]+0.087*[#  10]+0.051*[#   1]+0.051*[#   5]+0.041*[#   2]+
          +0.041*[#   6]+0.021*[#   3]+0.021*[#   7]+
    |psi|^2 = 0.401
==== e(   8) =     1.45466 eV ==== 
     psi = 0.134*[#   9]+0.134*[#  10]+0.025*[#   1]+0.025*[#   5]+0.011*[#   3]+
          +0.011*[#   7]+
    |psi|^2 = 0.342
==== e(   9) =     2.20734 eV ==== 
     psi = 0.014*[#   9]+0.014*[#  10]+0.011*[#   1]+0.011*[#   5]+0.007*[#   2]+
          +0.007*[#   6]+0.004*[#   3]+0.004*[#   7]+
    |psi|^2 = 0.073
==== e(  10) =     2.29211 eV ==== 
     psi = 
    |psi|^2 = 0.002
==== e(  11) =     2.40417 eV ==== 
     psi = 
    |psi|^2 = 0.003
==== e(  12) =     2.82924 eV ==== 
     psi = 0.014*[#   9]+0.014*[#  10]+0.003*[#   1]+0.003*[#   5]+0.002*[#   3]+
          +0.002*[#   7]+
    |psi|^2 = 0.037
==== e(  13) =     2.92185 eV ==== 
     psi = 0.014*[#   4]+0.014*[#   8]+
    |psi|^2 = 0.029
==== e(  14) =     2.95317 eV ==== 
     psi = 0.016*[#   1]+0.016*[#   5]+0.014*[#   9]+0.014*[#  10]+0.008*[#   2]+
          +0.008*[#   6]+0.004*[#   3]+0.004*[#   7]+
    |psi|^2 = 0.085
==== e(  15) =     2.98397 eV ==== 
     psi = 0.002*[#   4]+0.002*[#   8]+
    |psi|^2 = 0.003

 k =   0.0000000000  0.0000000000 -1.4998992925
==== e(   1) =   -19.65346 eV ==== 
     psi = 0.329*[#   1]+0.329*[#   5]+0.093*[#   2]+0.093*[#   6]+0.054*[#   9]+
          +0.054*[#  10]+0.016*[#   3]+0.016*[#   7]+
    |psi|^2 = 0.982
==== e(   2) =   -13.23101 eV ==== 
     psi = 0.240*[#   3]+0.240*[#   7]+0.147*[#   9]+0.147*[#  10]+0.094*[#   1]+
          +0.094*[#   5]+0.005*[#   2]+0.005*[#   6]+
    |psi|^2 = 0.972
==== e(   3) =   -11.45703 eV ==== 
     psi = 0.397*[#   2]+0.397*[#   6]+0.052*[#   3]+0.052*[#   7]+0.043*[#   1]+
          +0.043*[#   5]+0.002*[#   9]+0.002*[#  10]+
    |psi|^2 = 0.988
==== e(   4) =    -8.45190 eV ==== 
     psi = 0.271*[#   3]+0.271*[#   7]+0.202*[#   9]+0.202*[#  10]+0.021*[#   2]+
          +0.021*[#   6]+0.001*[#   1]+0.001*[#   5]+
    |psi|^2 = 0.990
==== e(   5) =    -7.74168 eV ==== 
     psi = 0.496*[#   4]+0.496*[#   8]+
    |psi|^2 = 0.992
==== e(   6) =     0.60627 eV ==== 
     psi = 0.403*[#   4]+0.403*[#   8]+
    |psi|^2 = 0.805
==== e(   7) =     0.93075 eV ==== 
     psi = 0.077*[#   9]+0.077*[#  10]+0.037*[#   1]+0.037*[#   5]+0.030*[#   2]+
          +0.030*[#   6]+0.021*[#   3]+0.021*[#   7]+
    |psi|^2 = 0.330
==== e(   8) =     1.06918 eV ==== 
     psi = 0.139*[#   9]+0.139*[#  10]+0.025*[#   1]+0.025*[#   5]+0.011*[#   3]+
          +0.011*[#   7]+
    |psi|^2 = 0.352
==== e(   9) =     1.84511 eV ==== 
     psi = 0.016*[#   9]+0.016*[#  10]+0.010*[#   1]+0.010*[#   5]+0.008*[#   2]+
          +0.008*[#   6]+0.005*[#   3]+0.005*[#   7]+
    |psi|^2 = 0.079
==== e(  10) =     1.88402 eV ==== 
     psi = 0.001*[#   4]+0.001*[#   8]+
    |psi|^2 = 0.002
==== e(  11) =     1.99816 eV ==== 
     psi = 
    |psi|^2 = 0.003
==== e(  12) =     2.42117 eV ==== 
     psi = 0.014*[#   9]+0.014*[#  10]+0.002*[#   1]+0.002*[#   5]+0.002*[#   3]+
          +0.002*[#   7]+
    |psi|^2 = 0.038
==== e(  13) =     2.56566 eV ==== 
     psi = 0.003*[#   4]+0.003*[#   8]+
    |psi|^2 = 0.007
==== e(  14) =     2.60743 eV ==== 
     psi = 0.026*[#   4]+0.026*[#   8]+
    |psi|^2 = 0.052
==== e(  15) =     2.61767 eV ==== 
     psi = 0.016*[#   9]+0.016*[#  10]+0.014*[#   1]+0.014*[#   5]+0.008*[#   2]+
          +0.008*[#   6]+0.006*[#   3]+0.006*[#   7]+
    |psi|^2 = 0.086

 k =   0.0000000000  0.0000000000 -1.2856279650
==== e(   1) =   -19.88930 eV ==== 
     psi = 0.343*[#   1]+0.343*[#   5]+0.073*[#   2]+0.073*[#   6]+0.057*[#   9]+
          +0.057*[#  10]+0.017*[#   3]+0.017*[#   7]+
    |psi|^2 = 0.982
==== e(   2) =   -13.40058 eV ==== 
     psi = 0.262*[#   3]+0.262*[#   7]+0.141*[#   9]+0.141*[#  10]+0.080*[#   1]+
          +0.080*[#   5]+
    |psi|^2 = 0.967
==== e(   3) =   -10.90109 eV ==== 
     psi = 0.414*[#   2]+0.414*[#   6]+0.044*[#   1]+0.044*[#   5]+0.032*[#   3]+
          +0.032*[#   7]+0.005*[#   9]+0.005*[#  10]+
    |psi|^2 = 0.991
==== e(   4) =    -8.35901 eV ==== 
     psi = 0.268*[#   3]+0.268*[#   7]+0.205*[#   9]+0.205*[#  10]+0.020*[#   2]+
          +0.020*[#   6]+0.002*[#   1]+0.002*[#   5]+
    |psi|^2 = 0.989
==== e(   5) =    -8.05369 eV ==== 
     psi = 0.495*[#   4]+0.495*[#   8]+
    |psi|^2 = 0.989
==== e(   6) =     0.66893 eV ==== 
     psi = 0.351*[#   4]+0.351*[#   8]+
    |psi|^2 = 0.701
==== e(   7) =     0.68526 eV ==== 
     psi = 0.083*[#   9]+0.083*[#  10]+0.026*[#   1]+0.026*[#   5]+0.019*[#   3]+
          +0.019*[#   7]+0.018*[#   2]+0.018*[#   6]+
    |psi|^2 = 0.294
==== e(   8) =     0.73706 eV ==== 
     psi = 0.129*[#  10]+0.128*[#   9]+0.025*[#   1]+0.025*[#   5]+0.013*[#   3]+
          +0.013*[#   7]+0.004*[#   2]+0.004*[#   6]+
    |psi|^2 = 0.339
==== e(   9) =     1.53010 eV ==== 
     psi = 0.002*[#   4]+0.002*[#   8]+
    |psi|^2 = 0.003
==== e(  10) =     1.53011 eV ==== 
     psi = 0.017*[#   9]+0.017*[#  10]+0.008*[#   1]+0.008*[#   5]+0.007*[#   2]+
          +0.007*[#   6]+0.006*[#   3]+0.006*[#   7]+
    |psi|^2 = 0.078
==== e(  11) =     1.64706 eV ==== 
     psi = 
    |psi|^2 = 0.004
==== e(  12) =     2.06709 eV ==== 
     psi = 0.015*[#   9]+0.015*[#  10]+0.002*[#   1]+0.002*[#   3]+0.002*[#   5]+
          +0.002*[#   7]+
    |psi|^2 = 0.040
==== e(  13) =     2.21477 eV ==== 
     psi = 
    |psi|^2 = 0.002
==== e(  14) =     2.31702 eV ==== 
     psi = 0.014*[#   9]+0.014*[#  10]+0.009*[#   1]+0.009*[#   5]+0.006*[#   2]+
          +0.006*[#   6]+0.006*[#   3]+0.006*[#   7]+
    |psi|^2 = 0.068
==== e(  15) =     2.33380 eV ==== 
     psi = 0.042*[#   4]+0.042*[#   8]+
    |psi|^2 = 0.084

 k =   0.0000000000  0.0000000000 -1.0713566375
==== e(   1) =   -20.08860 eV ==== 
     psi = 0.357*[#   1]+0.357*[#   5]+0.061*[#   9]+0.061*[#  10]+0.055*[#   2]+
          +0.055*[#   6]+0.019*[#   3]+0.019*[#   7]+
    |psi|^2 = 0.983
==== e(   2) =   -13.56605 eV ==== 
     psi = 0.272*[#   3]+0.272*[#   7]+0.136*[#   9]+0.136*[#  10]+0.074*[#   1]+
          +0.074*[#   5]+
    |psi|^2 = 0.964
==== e(   3) =   -10.35186 eV ==== 
     psi = 0.425*[#   2]+0.425*[#   6]+0.037*[#   1]+0.037*[#   5]+0.025*[#   3]+
          +0.025*[#   7]+0.009*[#   9]+0.009*[#  10]+
    |psi|^2 = 0.992
==== e(   4) =    -8.31707 eV ==== 
     psi = 0.494*[#   4]+0.494*[#   8]+
    |psi|^2 = 0.987
==== e(   5) =    -8.28467 eV ==== 
     psi = 0.263*[#   3]+0.263*[#   7]+0.205*[#   9]+0.205*[#  10]+0.022*[#   2]+
          +0.022*[#   6]+0.003*[#   1]+0.003*[#   5]+
    |psi|^2 = 0.988
==== e(   6) =     0.43271 eV ==== 
     psi = 0.143*[#   9]+0.143*[#  10]+0.024*[#   1]+0.024*[#   5]+0.013*[#   3]+
          +0.013*[#   7]+0.003*[#   2]+0.003*[#   6]+
    |psi|^2 = 0.368
==== e(   7) =     0.47918 eV ==== 
     psi = 0.066*[#  10]+0.066*[#   9]+0.019*[#   1]+0.019*[#   5]+0.018*[#   3]+
          +0.018*[#   7]+0.011*[#   2]+0.011*[#   6]+
    |psi|^2 = 0.230
==== e(   8) =     0.63175 eV ==== 
     psi = 0.302*[#   4]+0.302*[#   8]+
    |psi|^2 = 0.604
==== e(   9) =     1.23061 eV ==== 
     psi = 0.002*[#   4]+0.002*[#   8]+
    |psi|^2 = 0.004
==== e(  10) =     1.25992 eV ==== 
     psi = 0.017*[#   9]+0.017*[#  10]+0.007*[#   3]+0.007*[#   7]+0.006*[#   1]+
          +0.006*[#   5]+0.006*[#   2]+0.006*[#   6]+
    |psi|^2 = 0.073
==== e(  11) =     1.35112 eV ==== 
     psi = 0.001*[#   1]+0.001*[#   5]+
    |psi|^2 = 0.005
==== e(  12) =     1.76715 eV ==== 
     psi = 0.016*[#   9]+0.016*[#  10]+0.003*[#   3]+0.003*[#   7]+0.002*[#   1]+
          +0.002*[#   5]+
    |psi|^2 = 0.041
==== e(  13) =     1.91524 eV ==== 
     psi = 
    |psi|^2 = 0.002
==== e(  14) =     2.04713 eV ==== 
     psi = 0.011*[#   9]+0.011*[#  10]+0.005*[#   1]+0.005*[#   3]+0.005*[#   5]+
          +0.005*[#   7]+0.004*[#   2]+0.004*[#   6]+
    |psi|^2 = 0.049
==== e(  15) =     2.10613 eV ==== 
     psi = 0.052*[#   4]+0.052*[#   8]+
    |psi|^2 = 0.105

 k =   0.0000000000  0.0000000000 -0.8570853100
==== e(   1) =   -20.25260 eV ==== 
     psi = 0.370*[#   1]+0.370*[#   5]+0.064*[#   9]+0.064*[#  10]+0.037*[#   2]+
          +0.037*[#   6]+0.020*[#   3]+0.020*[#   7]+
    |psi|^2 = 0.983
==== e(   2) =   -13.70994 eV ==== 
     psi = 0.278*[#   3]+0.278*[#   7]+0.132*[#   9]+0.132*[#  10]+0.071*[#   1]+
          +0.071*[#   5]+
    |psi|^2 = 0.962
==== e(   3) =    -9.85510 eV ==== 
     psi = 0.429*[#   2]+0.429*[#   6]+0.026*[#   1]+0.026*[#   3]+0.026*[#   5]+
          +0.026*[#   7]+0.015*[#   9]+0.015*[#  10]+
    |psi|^2 = 0.993
==== e(   4) =    -8.53406 eV ==== 
     psi = 0.492*[#   4]+0.492*[#   8]+
    |psi|^2 = 0.985
==== e(   5) =    -8.22069 eV ==== 
     psi = 0.255*[#   3]+0.255*[#   7]+0.202*[#   9]+0.202*[#  10]+0.032*[#   2]+
          +0.032*[#   6]+0.006*[#   1]+0.006*[#   5]+
    |psi|^2 = 0.988
==== e(   6) =     0.20048 eV ==== 
     psi = 0.159*[#   9]+0.159*[#  10]+0.024*[#   1]+0.024*[#   5]+0.013*[#   3]+
          +0.012*[#   7]+
    |psi|^2 = 0.392
==== e(   7) =     0.27965 eV ==== 
     psi = 0.051*[#  10]+0.051*[#   9]+0.019*[#   3]+0.019*[#   7]+0.014*[#   1]+
          +0.014*[#   5]+0.008*[#   2]+0.008*[#   6]+
    |psi|^2 = 0.184
==== e(   8) =     0.54644 eV ==== 
     psi = 0.266*[#   4]+0.266*[#   8]+
    |psi|^2 = 0.531
==== e(   9) =     0.98546 eV ==== 
     psi = 0.002*[#   4]+0.002*[#   8]+
    |psi|^2 = 0.004
==== e(  10) =     1.03486 eV ==== 
     psi = 0.017*[#   9]+0.017*[#  10]+0.007*[#   3]+0.007*[#   7]+0.005*[#   1]+
          +0.005*[#   5]+0.004*[#   2]+0.004*[#   6]+
    |psi|^2 = 0.066
==== e(  11) =     1.11032 eV ==== 
     psi = 0.002*[#   1]+0.002*[#   5]+0.002*[#   9]+0.002*[#  10]+0.001*[#   3]+
          +0.001*[#   7]+
    |psi|^2 = 0.008
==== e(  12) =     1.52133 eV ==== 
     psi = 0.016*[#   9]+0.016*[#  10]+0.003*[#   3]+0.003*[#   7]+0.002*[#   1]+
          +0.002*[#   5]+
    |psi|^2 = 0.042
==== e(  13) =     1.66982 eV ==== 
     psi = 0.001*[#   4]+0.001*[#   8]+
    |psi|^2 = 0.002
==== e(  14) =     1.81718 eV ==== 
     psi = 0.009*[#   9]+0.009*[#  10]+0.004*[#   3]+0.004*[#   7]+0.003*[#   1]+
          +0.003*[#   2]+0.003*[#   5]+0.003*[#   6]+
    |psi|^2 = 0.037
==== e(  15) =     1.91630 eV ==== 
     psi = 0.058*[#   4]+0.058*[#   8]+
    |psi|^2 = 0.116

 k =   0.0000000000  0.0000000000 -0.6428139825
==== e(   1) =   -20.38014 eV ==== 
     psi = 0.381*[#   1]+0.381*[#   5]+0.068*[#   9]+0.068*[#  10]+0.022*[#   2]+
          +0.022*[#   6]+0.021*[#   3]+0.021*[#   7]+
    |psi|^2 = 0.984
==== e(   2) =   -13.82616 eV ==== 
     psi = 0.281*[#   3]+0.281*[#   7]+0.130*[#   9]+0.130*[#  10]+0.069*[#   1]+
          +0.069*[#   5]+
    |psi|^2 = 0.960
==== e(   3) =    -9.43963 eV ==== 
     psi = 0.419*[#   2]+0.419*[#   6]+0.037*[#   3]+0.037*[#   7]+0.025*[#   9]+
          +0.025*[#  10]+0.016*[#   1]+0.016*[#   5]+
    |psi|^2 = 0.993
==== e(   4) =    -8.70329 eV ==== 
     psi = 0.491*[#   4]+0.491*[#   8]+
    |psi|^2 = 0.983
==== e(   5) =    -8.15219 eV ==== 
     psi = 0.240*[#   3]+0.240*[#   7]+0.192*[#   9]+0.192*[#  10]+0.055*[#   2]+
          +0.055*[#   6]+0.008*[#   1]+0.008*[#   5]+
    |psi|^2 = 0.988
==== e(   6) =     0.01564 eV ==== 
     psi = 0.165*[#   9]+0.165*[#  10]+0.023*[#   1]+0.023*[#   5]+0.013*[#   3]+
          +0.013*[#   7]+
    |psi|^2 = 0.402
==== e(   7) =     0.12053 eV ==== 
     psi = 0.046*[#   9]+0.046*[#  10]+0.019*[#   3]+0.019*[#   7]+0.011*[#   1]+
          +0.011*[#   5]+0.005*[#   2]+0.005*[#   6]+
    |psi|^2 = 0.160
==== e(   8) =     0.45177 eV ==== 
     psi = 0.241*[#   4]+0.241*[#   8]+
    |psi|^2 = 0.482
==== e(   9) =     0.79474 eV ==== 
     psi = 0.002*[#   4]+0.002*[#   8]+
    |psi|^2 = 0.005
==== e(  10) =     0.85686 eV ==== 
     psi = 0.016*[#   9]+0.016*[#  10]+0.007*[#   3]+0.007*[#   7]+0.003*[#   1]+
          +0.003*[#   5]+0.002*[#   2]+0.002*[#   6]+
    |psi|^2 = 0.059
==== e(  11) =     0.92419 eV ==== 
     psi = 0.003*[#   9]+0.003*[#  10]+0.002*[#   1]+0.002*[#   5]+0.002*[#   3]+
          +0.002*[#   7]+
    |psi|^2 = 0.012
==== e(  12) =     1.32973 eV ==== 
     psi = 0.017*[#   9]+0.017*[#  10]+0.003*[#   3]+0.003*[#   7]+0.002*[#   1]+
          +0.002*[#   5]+
    |psi|^2 = 0.043
==== e(  13) =     1.47884 eV ==== 
     psi = 0.001*[#   4]+0.001*[#   8]+
    |psi|^2 = 0.002
==== e(  14) =     1.63464 eV ==== 
     psi = 0.008*[#   9]+0.008*[#  10]+0.004*[#   3]+0.004*[#   7]+0.002*[#   1]+
          +0.002*[#   5]+0.001*[#   2]+0.001*[#   6]+
    |psi|^2 = 0.031
==== e(  15) =     1.76447 eV ==== 
     psi = 0.061*[#   4]+0.061*[#   8]+
    |psi|^2 = 0.123

 k =   0.0000000000  0.0000000000 -0.4285426550
==== e(   1) =   -20.47187 eV ==== 
     psi = 0.389*[#   1]+0.389*[#   5]+0.070*[#   9]+0.070*[#  10]+0.022*[#   3]+
          +0.022*[#   7]+0.011*[#   2]+0.011*[#   6]+
    |psi|^2 = 0.984
==== e(   2) =   -13.91083 eV ==== 
     psi = 0.284*[#   3]+0.284*[#   7]+0.128*[#   9]+0.128*[#  10]+0.068*[#   1]+
          +0.068*[#   5]+
    |psi|^2 = 0.959
==== e(   3) =    -9.14660 eV ==== 
     psi = 0.390*[#   2]+0.390*[#   6]+0.056*[#   3]+0.056*[#   7]+0.043*[#   9]+
          +0.043*[#  10]+0.007*[#   1]+0.007*[#   5]+
    |psi|^2 = 0.993
==== e(   4) =    -8.82547 eV ==== 
     psi = 0.491*[#   4]+0.491*[#   8]+
    |psi|^2 = 0.981
==== e(   5) =    -8.07714 eV ==== 
     psi = 0.216*[#   3]+0.216*[#   7]+0.174*[#   9]+0.174*[#  10]+0.095*[#   2]+
          +0.095*[#   6]+0.008*[#   1]+0.008*[#   5]+
    |psi|^2 = 0.988
==== e(   6) =    -0.11817 eV ==== 
     psi = 0.169*[#   9]+0.169*[#  10]+0.022*[#   1]+0.022*[#   5]+0.013*[#   3]+
          +0.013*[#   7]+
    |psi|^2 = 0.410
==== e(   7) =     0.00423 eV ==== 
     psi = 0.043*[#   9]+0.043*[#  10]+0.019*[#   3]+0.019*[#   7]+0.009*[#   1]+
          +0.009*[#   5]+0.002*[#   2]+0.002*[#   6]+
    |psi|^2 = 0.147
==== e(   8) =     0.37228 eV ==== 
     psi = 0.226*[#   4]+0.226*[#   8]+
    |psi|^2 = 0.452
==== e(   9) =     0.65844 eV ==== 
     psi = 0.003*[#   4]+0.003*[#   8]+
    |psi|^2 = 0.005
==== e(  10) =     0.72801 eV ==== 
     psi = 0.016*[#   9]+0.016*[#  10]+0.007*[#   3]+0.007*[#   7]+0.002*[#   1]+
          +0.002*[#   5]+0.001*[#   2]+0.001*[#   6]+
    |psi|^2 = 0.053
==== e(  11) =     0.79195 eV ==== 
     psi = 0.003*[#   9]+0.003*[#  10]+0.002*[#   1]+0.002*[#   3]+0.002*[#   5]+
          +0.002*[#   7]+
    |psi|^2 = 0.015
==== e(  12) =     1.19253 eV ==== 
     psi = 0.017*[#   9]+0.017*[#  10]+0.003*[#   3]+0.003*[#   7]+0.001*[#   1]+
          +0.001*[#   5]+
    |psi|^2 = 0.044
==== e(  13) =     1.34236 eV ==== 
     psi = 0.001*[#   4]+0.001*[#   8]+
    |psi|^2 = 0.003
==== e(  14) =     1.50289 eV ==== 
     psi = 0.008*[#   9]+0.008*[#  10]+0.004*[#   3]+0.004*[#   7]+0.001*[#   1]+
          +0.001*[#   5]+
    |psi|^2 = 0.027
==== e(  15) =     1.65361 eV ==== 
     psi = 0.063*[#   4]+0.063*[#   8]+
    |psi|^2 = 0.126

 k =   0.0000000000  0.0000000000 -0.2142713275
==== e(   1) =   -20.52708 eV ==== 
     psi = 0.395*[#   1]+0.395*[#   5]+0.072*[#   9]+0.072*[#  10]+0.022*[#   3]+
          +0.022*[#   7]+0.003*[#   2]+0.003*[#   6]+
    |psi|^2 = 0.984
==== e(   2) =   -13.96239 eV ==== 
     psi = 0.285*[#   3]+0.285*[#   7]+0.127*[#   9]+0.127*[#  10]+0.067*[#   1]+
          +0.067*[#   5]+
    |psi|^2 = 0.958
==== e(   3) =    -8.97984 eV ==== 
     psi = 0.355*[#   2]+0.355*[#   6]+0.078*[#   3]+0.078*[#   7]+0.061*[#   9]+
          +0.061*[#  10]+0.002*[#   1]+0.002*[#   5]+
    |psi|^2 = 0.992
==== e(   4) =    -8.89916 eV ==== 
     psi = 0.490*[#   4]+0.490*[#   8]+
    |psi|^2 = 0.980
==== e(   5) =    -8.00887 eV ==== 
     psi = 0.192*[#   3]+0.192*[#   7]+0.155*[#   9]+0.155*[#  10]+0.139*[#   2]+
          +0.139*[#   6]+0.008*[#   1]+0.008*[#   5]+
    |psi|^2 = 0.988
==== e(   6) =    -0.19931 eV ==== 
     psi = 0.172*[#   9]+0.172*[#  10]+0.021*[#   1]+0.021*[#   5]+0.014*[#   3]+
          +0.014*[#   7]+
    |psi|^2 = 0.414
==== e(   7) =    -0.06653 eV ==== 
     psi = 0.042*[#   9]+0.042*[#  10]+0.019*[#   3]+0.019*[#   7]+0.008*[#   1]+
          +0.008*[#   5]+
    |psi|^2 = 0.139
==== e(   8) =     0.32042 eV ==== 
     psi = 0.218*[#   4]+0.218*[#   8]+
    |psi|^2 = 0.436
==== e(   9) =     0.57662 eV ==== 
     psi = 0.003*[#   4]+0.003*[#   8]+
    |psi|^2 = 0.005
==== e(  10) =     0.65006 eV ==== 
     psi = 0.015*[#   9]+0.015*[#  10]+0.007*[#   3]+0.007*[#   7]+0.002*[#   1]+
          +0.002*[#   5]+
    |psi|^2 = 0.049
==== e(  11) =     0.71288 eV ==== 
     psi = 0.004*[#   9]+0.004*[#  10]+0.002*[#   3]+0.002*[#   7]+0.002*[#   1]+
          +0.002*[#   5]+
    |psi|^2 = 0.017
==== e(  12) =     1.11000 eV ==== 
     psi = 0.018*[#   9]+0.018*[#  10]+0.003*[#   3]+0.003*[#   7]+0.001*[#   1]+
          +0.001*[#   5]+
    |psi|^2 = 0.044
==== e(  13) =     1.26046 eV ==== 
     psi = 0.001*[#   4]+0.001*[#   8]+
    |psi|^2 = 0.003
==== e(  14) =     1.42344 eV ==== 
     psi = 0.008*[#   9]+0.008*[#  10]+0.004*[#   3]+0.004*[#   7]+
    |psi|^2 = 0.026
==== e(  15) =     1.58603 eV ==== 
     psi = 0.064*[#   4]+0.064*[#   8]+
    |psi|^2 = 0.127

Lowdin Charges: 

     Atom #   1: total charge =   4.1259, s =  0.9341, p =  3.1918, 
     Atom #   2: total charge =   4.1258, s =  0.9341, p =  3.1917, 
     Atom #   3: total charge =   0.7961, s =  0.7961, p =  0.0000, 
     Atom #   4: total charge =   0.7961, s =  0.7961, p =  0.0000, 
     Spilling Parameter:   0.0156
