
     Program PWSCF v.5.0.1 starts on 28Feb2013 at 10: 3:47 

     This program is part of the open-source Quantum ESPRESSO suite
     for quantum simulation of materials; please cite
         "P. Giannozzi et al., J. Phys.:Condens. Matter 21 395502 (2009);
          URL http://www.quantum-espresso.org", 
     in publications or presentations arising from this work. More details at
     http://www.quantum-espresso.org/quote.php

     Parallel version (MPI), running on     6 processors
     R & G space division:  proc/pool =    6

     Current dimensions of program PWSCF are:
     Max number of different atomic species (ntypx) = 10
     Max number of k-points (npk) =  40000
     Max angular momentum in pseudopotentials (lmaxx) =  3
     Reading input from /home/ferretti/want/tests/test16/scf_PA.in
               file H.pz-vbc.UPF: wavefunction(s)  1S renormalized

     Subspace diagonalization in iterative solution of the eigenvalue problem:
     a serial algorithm will be used

 
     Parallelization info
     --------------------
     sticks:   dense  smooth     PW     G-vecs:    dense   smooth      PW
     Min        1907    1907    584                23948    23948    4049
     Max        1909    1909    586                23949    23949    4050
     Sum       11449   11449   3513               143691   143691   24299
 


     bravais-lattice index     =            8
     lattice parameter (alat)  =      30.0000  a.u.
     unit-cell volume          =    4200.2820 (a.u.)^3
     number of atoms/cell      =            4
     number of atomic types    =            2
     number of electrons       =        10.00
     number of Kohn-Sham states=            5
     kinetic-energy cutoff     =      40.0000  Ry
     charge density cutoff     =     160.0000  Ry
     convergence threshold     =      1.0E-08
     mixing beta               =       0.3000
     number of iterations used =            8  plain     mixing
     Exchange-correlation      =  SLA  PZ   NOGX NOGC ( 1 1 0 0 0)
     EXX-fraction              =        0.00

     celldm(1)=  30.000000  celldm(2)=   1.000000  celldm(3)=   0.155566
     celldm(4)=   0.000000  celldm(5)=   0.000000  celldm(6)=   0.000000

     crystal axes: (cart. coord. in units of alat)
               a(1) = (   1.000000   0.000000   0.000000 )  
               a(2) = (   0.000000   1.000000   0.000000 )  
               a(3) = (   0.000000   0.000000   0.155566 )  

     reciprocal axes: (cart. coord. in units 2 pi/alat)
               b(1) = (  1.000000  0.000000  0.000000 )  
               b(2) = (  0.000000  1.000000  0.000000 )  
               b(3) = (  0.000000  0.000000  6.428140 )  


     PseudoPot. # 1 for C  read from file:
     ../pseudo/C.pz-vbc.UPF
     MD5 check sum: ab53dd623bfeb79c5a7b057bc96eae20
     Pseudo is Norm-conserving, Zval =  4.0
     Generated by new atomic code, or converted to UPF format
     Using radial grid of  269 points,  1 beta functions with: 
                l(1) =   0

     PseudoPot. # 2 for H  read from file:
     ../pseudo/H.pz-vbc.UPF
     MD5 check sum: 90becb985b714f09656c73597998d266
     Pseudo is Norm-conserving, Zval =  1.0
     Generated by new atomic code, or converted to UPF format
     Using radial grid of  131 points,  0 beta functions with: 

     atomic species   valence    mass     pseudopotential
        C              4.00     1.00000     C ( 1.00)
        H              1.00     1.00000     H ( 1.00)

      2 Sym. Ops. (no inversion) found
          (note:  2 additional sym.ops. were found but ignored
           their fractional translations are incommensurate with FFT grid)


   Cartesian axes

     site n.     atom                  positions (alat units)
         1           C   tau(   1) = (   0.0000000   0.0000000  -0.0368990  )
         2           C   tau(   2) = (   0.0408396   0.0000000   0.0368992  )
         3           H   tau(   3) = (  -0.0678406   0.0000000  -0.0371833  )
         4           H   tau(   4) = (   0.1086802   0.0000000   0.0371835  )

     number of k points=    11
                       cart. coord. in units 2pi/alat
        k(    1) = (   0.0000000   0.0000000   0.0000000), wk =   0.1000000
        k(    2) = (   0.0000000   0.0000000   0.3214070), wk =   0.2000000
        k(    3) = (   0.0000000   0.0000000   0.6428140), wk =   0.2000000
        k(    4) = (   0.0000000   0.0000000   0.9642210), wk =   0.2000000
        k(    5) = (   0.0000000   0.0000000   1.2856280), wk =   0.2000000
        k(    6) = (   0.0000000   0.0000000   1.6070350), wk =   0.2000000
        k(    7) = (   0.0000000   0.0000000   1.9284419), wk =   0.2000000
        k(    8) = (   0.0000000   0.0000000   2.2498489), wk =   0.2000000
        k(    9) = (   0.0000000   0.0000000   2.5712559), wk =   0.2000000
        k(   10) = (   0.0000000   0.0000000   2.8926629), wk =   0.2000000
        k(   11) = (   0.0000000   0.0000000  -3.2140699), wk =   0.1000000

     Dense  grid:   143691 G-vectors     FFT dimensions: ( 125, 125,  20)

     Largest allocated arrays     est. size (Mb)     dimensions
        Kohn-Sham Wavefunctions         0.23 Mb     (   3009,    5)
        NL pseudopotentials             0.09 Mb     (   3009,    2)
        Each V/rho on FFT grid          0.95 Mb     (  62500)
        Each G-vector array             0.18 Mb     (  23949)
        G-vector shells                 0.05 Mb     (   6184)
     Largest temporary arrays     est. size (Mb)     dimensions
        Auxiliary wavefunctions         0.92 Mb     (   3009,   20)
        Each subspace H/S matrix        0.01 Mb     (  20,  20)
        Each <psi_i|beta_j> matrix      0.00 Mb     (      2,    5)
        Arrays for rho mixing           7.63 Mb     (  62500,   8)

     Initial potential from superposition of free atoms
     Check: negative starting charge=   -0.006229

     starting charge    9.99989, renormalised to   10.00000

     negative rho (up, down):  0.623E-02 0.000E+00
     Starting wfc are   10 randomized atomic wfcs

     total cpu time spent up to now is        1.3 secs

     per-process dynamical memory:    16.0 Mb

     Self-consistent Calculation

     iteration #  1     ecut=    40.00 Ry     beta=0.30
     Davidson diagonalization with overlap
     ethr =  1.00E-02,  avg # of iterations =  2.0

     negative rho (up, down):  0.432E-02 0.000E+00

     total cpu time spent up to now is        2.9 secs

     total energy              =     -24.95676472 Ry
     Harris-Foulkes estimate   =     -25.14547108 Ry
     estimated scf accuracy    <       0.50166856 Ry

     iteration #  2     ecut=    40.00 Ry     beta=0.30
     Davidson diagonalization with overlap
     ethr =  5.02E-03,  avg # of iterations =  1.0

     negative rho (up, down):  0.177E-02 0.000E+00

     total cpu time spent up to now is        4.0 secs

     total energy              =     -24.91316960 Ry
     Harris-Foulkes estimate   =     -24.98420064 Ry
     estimated scf accuracy    <       0.12687392 Ry

     iteration #  3     ecut=    40.00 Ry     beta=0.30
     Davidson diagonalization with overlap
     ethr =  1.27E-03,  avg # of iterations =  2.0

     negative rho (up, down):  0.982E-03 0.000E+00

     total cpu time spent up to now is        5.3 secs

     total energy              =     -24.93492755 Ry
     Harris-Foulkes estimate   =     -24.94303576 Ry
     estimated scf accuracy    <       0.01590827 Ry

     iteration #  4     ecut=    40.00 Ry     beta=0.30
     Davidson diagonalization with overlap
     ethr =  1.59E-04,  avg # of iterations =  2.0

     negative rho (up, down):  0.592E-04 0.000E+00

     total cpu time spent up to now is        6.6 secs

     total energy              =     -24.93662963 Ry
     Harris-Foulkes estimate   =     -24.93998325 Ry
     estimated scf accuracy    <       0.00718029 Ry

     iteration #  5     ecut=    40.00 Ry     beta=0.30
     Davidson diagonalization with overlap
     ethr =  7.18E-05,  avg # of iterations =  2.0

     negative rho (up, down):  0.823E-04 0.000E+00

     total cpu time spent up to now is        7.9 secs

     total energy              =     -24.93736842 Ry
     Harris-Foulkes estimate   =     -24.93751264 Ry
     estimated scf accuracy    <       0.00051849 Ry

     iteration #  6     ecut=    40.00 Ry     beta=0.30
     Davidson diagonalization with overlap
     ethr =  5.18E-06,  avg # of iterations =  2.2

     negative rho (up, down):  0.777E-05 0.000E+00

     total cpu time spent up to now is        9.0 secs

     total energy              =     -24.93728005 Ry
     Harris-Foulkes estimate   =     -24.93742258 Ry
     estimated scf accuracy    <       0.00022517 Ry

     iteration #  7     ecut=    40.00 Ry     beta=0.30
     Davidson diagonalization with overlap
     ethr =  2.25E-06,  avg # of iterations =  2.0

     negative rho (up, down):  0.694E-07 0.000E+00

     total cpu time spent up to now is       10.5 secs

     total energy              =     -24.93734673 Ry
     Harris-Foulkes estimate   =     -24.93735691 Ry
     estimated scf accuracy    <       0.00001706 Ry

     iteration #  8     ecut=    40.00 Ry     beta=0.30
     Davidson diagonalization with overlap
     ethr =  1.71E-07,  avg # of iterations =  2.2

     total cpu time spent up to now is       11.9 secs

     total energy              =     -24.93735117 Ry
     Harris-Foulkes estimate   =     -24.93735143 Ry
     estimated scf accuracy    <       0.00000081 Ry

     iteration #  9     ecut=    40.00 Ry     beta=0.30
     Davidson diagonalization with overlap
     ethr =  8.06E-09,  avg # of iterations =  2.5

     total cpu time spent up to now is       13.2 secs

     total energy              =     -24.93735127 Ry
     Harris-Foulkes estimate   =     -24.93735133 Ry
     estimated scf accuracy    <       0.00000011 Ry

     iteration # 10     ecut=    40.00 Ry     beta=0.30
     Davidson diagonalization with overlap
     ethr =  1.12E-09,  avg # of iterations =  2.2

     total cpu time spent up to now is       14.5 secs

     total energy              =     -24.93735129 Ry
     Harris-Foulkes estimate   =     -24.93735129 Ry
     estimated scf accuracy    <       0.00000001 Ry

     iteration # 11     ecut=    40.00 Ry     beta=0.30
     Davidson diagonalization with overlap
     ethr =  1.25E-10,  avg # of iterations =  1.8

     total cpu time spent up to now is       15.6 secs

     total energy              =     -24.93735128 Ry
     Harris-Foulkes estimate   =     -24.93735129 Ry
     estimated scf accuracy    <       0.00000001 Ry

     iteration # 12     ecut=    40.00 Ry     beta=0.30
     Davidson diagonalization with overlap
     ethr =  1.25E-10,  avg # of iterations =  2.3

     total cpu time spent up to now is       16.9 secs

     End of self-consistent calculation

          k = 0.0000 0.0000 0.0000 ( 18029 PWs)   bands (ev):

   -20.5448 -13.9796  -8.9283  -8.9221  -7.9800

          k = 0.0000 0.0000 0.3214 ( 18033 PWs)   bands (ev):

   -20.5040 -13.9409  -9.0480  -8.8686  -8.0405

          k = 0.0000 0.0000 0.6428 ( 17957 PWs)   bands (ev):

   -20.3798 -13.8261  -9.4392  -8.7030  -8.1521

          k = 0.0000 0.0000 0.9642 ( 17969 PWs)   bands (ev):

   -20.1746 -13.6409 -10.0946  -8.4311  -8.2523

          k = 0.0000 0.0000 1.2856 ( 17997 PWs)   bands (ev):

   -19.8889 -13.4005 -10.9006  -8.3590  -8.0534

          k = 0.0000 0.0000 1.6070 ( 17925 PWs)   bands (ev):

   -19.5224 -13.1606 -11.7170  -8.5094  -7.5696

          k = 0.0000 0.0000 1.9284 ( 17893 PWs)   bands (ev):

   -19.0782 -13.2589 -12.1596  -8.7344  -6.9861

          k = 0.0000 0.0000 2.2498 ( 17874 PWs)   bands (ev):

   -18.5603 -13.9709 -11.9224  -9.0460  -6.3078

          k = 0.0000 0.0000 2.5713 ( 17910 PWs)   bands (ev):

   -17.9772 -14.8113 -11.4770  -9.4454  -5.5485

          k = 0.0000 0.0000 2.8927 ( 17918 PWs)   bands (ev):

   -17.3533 -15.6080 -10.9744  -9.9093  -4.7429

          k = 0.0000 0.0000-3.2141 ( 17978 PWs)   bands (ev):

   -16.9239 -16.0982 -10.5556 -10.3182  -4.1867

!    total energy              =     -24.93735128 Ry
     Harris-Foulkes estimate   =     -24.93735129 Ry
     estimated scf accuracy    <          2.5E-09 Ry

     The total energy is the sum of the following terms:

     one-electron contribution =    -125.13465325 Ry
     hartree contribution      =      63.53238627 Ry
     xc contribution           =      -8.22031320 Ry
     ewald contribution        =      44.88522889 Ry

     convergence has been achieved in  12 iterations

     Writing output data file poly_pa.save
 
     init_run     :      0.96s CPU      1.05s WALL (       1 calls)
     electrons    :     15.30s CPU     15.57s WALL (       1 calls)

     Called by init_run:
     wfcinit      :      0.76s CPU      0.81s WALL (       1 calls)
     potinit      :      0.08s CPU      0.10s WALL (       1 calls)

     Called by electrons:
     c_bands      :     12.27s CPU     12.40s WALL (      12 calls)
     sum_band     :      2.37s CPU      2.44s WALL (      12 calls)
     v_of_rho     :      0.16s CPU      0.18s WALL (      13 calls)
     mix_rho      :      0.21s CPU      0.23s WALL (      12 calls)

     Called by c_bands:
     init_us_2    :      0.11s CPU      0.10s WALL (     275 calls)
     cegterg      :     12.10s CPU     12.24s WALL (     132 calls)

     Called by *egterg:
     h_psi        :     11.96s CPU     12.19s WALL (     409 calls)
     g_psi        :      0.09s CPU      0.09s WALL (     266 calls)
     cdiaghg      :      0.03s CPU      0.11s WALL (     398 calls)

     Called by h_psi:
     add_vuspsi   :      0.02s CPU      0.04s WALL (     409 calls)

     General routines
     calbec       :      0.08s CPU      0.08s WALL (     409 calls)
     fft          :      0.27s CPU      0.28s WALL (      51 calls)
     fftw         :     12.61s CPU     12.98s WALL (    4384 calls)
     davcio       :      0.13s CPU      0.11s WALL (     407 calls)
 
     Parallel routines
     fft_scatter  :      3.63s CPU      3.43s WALL (    4435 calls)
 
     PWSCF        :    16.36s CPU        16.98s WALL

 
   This run was terminated on:  10: 4: 4  28Feb2013            

=------------------------------------------------------------------------------=
   JOB DONE.
=------------------------------------------------------------------------------=
