
     Program POST-PROC v.3.1    starts ...
     Today is 11Apr2006 at 17: 2:19 

     nbndx  =    20  nbnd   =    20  natomwfc =     6  npwx   =     190
     nelec  =   9.00  nkb   =    18  ngl    =     125

     Check: negative/imaginary core charge=   -0.000012    0.000000
