
     Program POST-PROC v.3.2cvs starts ...
     Today is 13Oct2006 at 23:31: 0 

     nbndx  =    20  nbnd   =    20  natomwfc =     9  npwx   =    2138
     nelec  =  11.00  nkb   =     8  ngl    =     214
