
     Program POST-PROC v.2.1.5  starts ...
     Today is 10Oct2005 at 12:14:38 

     Reading file copper_US.save ... 
     read complete

     Reading file copper_US.save ... 
     read complete

     nbndx  =    20  nbnd   =    20  natomwfc =     6  npwx   =     190
     nelec  =   11.00 nkb   =    13  ngl    =      84
