
     Program PWSCF v.5.0.1 (svn rev. 9214M) starts on 20Sep2012 at 14:45:27 

     This program is part of the open-source Quantum ESPRESSO suite
     for quantum simulation of materials; please cite
         "P. Giannozzi et al., J. Phys.:Condens. Matter 21 395502 (2009);
          URL http://www.quantum-espresso.org", 
     in publications or presentations arising from this work. More details at
     http://www.quantum-espresso.org/quote.php

     Parallel version (MPI), running on     6 processors
     R & G space division:  proc/pool =    6

     Current dimensions of program PWSCF are:
     Max number of different atomic species (ntypx) = 10
     Max number of k-points (npk) =  40000
     Max angular momentum in pseudopotentials (lmaxx) =  3
     Reading input from /home/ferretti/want/tests/test12/nscf.in

     Atomic positions and unit cell read from directory:
     ./SCRATCH/si111.save/
     Nothing found: using input atomic positions and unit cell


     Subspace diagonalization in iterative solution of the eigenvalue problem:
     a serial algorithm will be used

 
     Parallelization info
     --------------------
     sticks:   dense  smooth     PW     G-vecs:    dense   smooth      PW
     Min         120     120     36                 4560     4560     766
     Max         121     121     37                 4563     4563     771
     Sum         725     725    219                27369    27369    4605
 


     bravais-lattice index     =            8
     lattice parameter (alat)  =       7.2549  a.u.
     unit-cell volume          =    1620.0172 (a.u.)^3
     number of atoms/cell      =           12
     number of atomic types    =            1
     number of electrons       =        48.00
     number of Kohn-Sham states=           70
     kinetic-energy cutoff     =      25.0000  Ry
     charge density cutoff     =     100.0000  Ry
     Exchange-correlation      =  SLA  PZ   NOGX NOGC ( 1 1 0 0 0)
     EXX-fraction              =        0.00

     celldm(1)=   7.254900  celldm(2)=   1.732000  celldm(3)=   2.449500
     celldm(4)=   0.000000  celldm(5)=   0.000000  celldm(6)=   0.000000

     crystal axes: (cart. coord. in units of alat)
               a(1) = (   1.000000   0.000000   0.000000 )  
               a(2) = (   0.000000   1.732000   0.000000 )  
               a(3) = (   0.000000   0.000000   2.449500 )  

     reciprocal axes: (cart. coord. in units 2 pi/alat)
               b(1) = (  1.000000  0.000000  0.000000 )  
               b(2) = (  0.000000  0.577367  0.000000 )  
               b(3) = (  0.000000  0.000000  0.408247 )  


     PseudoPot. # 1 for Si read from file:
     ../pseudo/Si.vbc.UPF
     MD5 check sum: bcd8ae23180a2f07cc8655fe7dcd9644
     Pseudo is Norm-conserving, Zval =  4.0
     Generated by new atomic code, or converted to UPF format
     Using radial grid of  431 points,  2 beta functions with: 
                l(1) =   0
                l(2) =   1

     atomic species   valence    mass     pseudopotential
        Si             4.00    28.08600     Si( 1.00)

     No symmetry found


                                    s                        frac. trans.

      isym =  1     identity                                     

 cryst.   s( 1) = (     1          0          0      )
                  (     0          1          0      )
                  (     0          0          1      )

 cart.    s( 1) = (  1.0000000  0.0000000  0.0000000 )
                  (  0.0000000  1.0000000  0.0000000 )
                  (  0.0000000  0.0000000  1.0000000 )


     point group C_1 (1)    
     there are  1 classes
     the character table:

       E    
A      1.00

     the symmetry operations in each class:
     E        1

   Cartesian axes

     site n.     atom                  positions (alat units)
         1           Si  tau(   1) = (   0.0000000   0.0000000   0.0000000  )
         2           Si  tau(   2) = (   0.4999964   0.8660196   0.0000000  )
         3           Si  tau(   3) = (   0.0000000   0.5773447   0.2041219  )
         4           Si  tau(   4) = (   0.4999964   1.4433643   0.2041219  )
         5           Si  tau(   5) = (   0.0000000   0.5773447   0.8164902  )
         6           Si  tau(   6) = (   0.4999964   1.4433643   0.8164902  )
         7           Si  tau(   7) = (   0.9999928   1.1546920   1.0206120  )
         8           Si  tau(   8) = (   0.4999964   0.2886723   1.0206120  )
         9           Si  tau(   9) = (   0.9999928   1.1546920   1.6329803  )
        10           Si  tau(  10) = (   0.4999964   0.2886723   1.6329803  )
        11           Si  tau(  11) = (   0.4999964   0.8660196   1.8371048  )
        12           Si  tau(  12) = (   0.9999928   1.7320393   1.8371048  )

   Crystallographic axes

     site n.     atom                  positions (cryst. coord.)
         1           Si  tau(   1) = (  0.0000000  0.0000000  0.0000000  )
         2           Si  tau(   2) = (  0.4999964  0.5000113  0.0000000  )
         3           Si  tau(   3) = (  0.0000000  0.3333399  0.0833321  )
         4           Si  tau(   4) = (  0.4999964  0.8333512  0.0833321  )
         5           Si  tau(   5) = (  0.0000000  0.3333399  0.3333293  )
         6           Si  tau(   6) = (  0.4999964  0.8333512  0.3333293  )
         7           Si  tau(   7) = (  0.9999928  0.6666813  0.4166614  )
         8           Si  tau(   8) = (  0.4999964  0.1666699  0.4166614  )
         9           Si  tau(   9) = (  0.9999928  0.6666813  0.6666586  )
        10           Si  tau(  10) = (  0.4999964  0.1666699  0.6666586  )
        11           Si  tau(  11) = (  0.4999964  0.5000113  0.7499918  )
        12           Si  tau(  12) = (  0.9999928  1.0000227  0.7499918  )

     number of k points=   128
                       cart. coord. in units 2pi/alat
        k(    1) = (   0.0000000   0.0000000   0.0000000), wk =   0.0156250
        k(    2) = (   0.0000000   0.0000000   0.1020616), wk =   0.0156250
        k(    3) = (   0.0000000   0.0000000  -0.2041233), wk =   0.0156250
        k(    4) = (   0.0000000   0.0000000  -0.1020616), wk =   0.0156250
        k(    5) = (   0.0000000   0.1443418   0.0000000), wk =   0.0156250
        k(    6) = (   0.0000000   0.1443418   0.1020616), wk =   0.0156250
        k(    7) = (   0.0000000   0.1443418  -0.2041233), wk =   0.0156250
        k(    8) = (   0.0000000   0.1443418  -0.1020616), wk =   0.0156250
        k(    9) = (   0.0000000  -0.2886836   0.0000000), wk =   0.0156250
        k(   10) = (   0.0000000  -0.2886836   0.1020616), wk =   0.0156250
        k(   11) = (   0.0000000  -0.2886836  -0.2041233), wk =   0.0156250
        k(   12) = (   0.0000000  -0.2886836  -0.1020616), wk =   0.0156250
        k(   13) = (   0.0000000  -0.1443418   0.0000000), wk =   0.0156250
        k(   14) = (   0.0000000  -0.1443418   0.1020616), wk =   0.0156250
        k(   15) = (   0.0000000  -0.1443418  -0.2041233), wk =   0.0156250
        k(   16) = (   0.0000000  -0.1443418  -0.1020616), wk =   0.0156250
        k(   17) = (   0.1250000   0.0000000   0.0000000), wk =   0.0156250
        k(   18) = (   0.1250000   0.0000000   0.1020616), wk =   0.0156250
        k(   19) = (   0.1250000   0.0000000  -0.2041233), wk =   0.0156250
        k(   20) = (   0.1250000   0.0000000  -0.1020616), wk =   0.0156250
        k(   21) = (   0.1250000   0.1443418   0.0000000), wk =   0.0156250
        k(   22) = (   0.1250000   0.1443418   0.1020616), wk =   0.0156250
        k(   23) = (   0.1250000   0.1443418  -0.2041233), wk =   0.0156250
        k(   24) = (   0.1250000   0.1443418  -0.1020616), wk =   0.0156250
        k(   25) = (   0.1250000  -0.2886836   0.0000000), wk =   0.0156250
        k(   26) = (   0.1250000  -0.2886836   0.1020616), wk =   0.0156250
        k(   27) = (   0.1250000  -0.2886836  -0.2041233), wk =   0.0156250
        k(   28) = (   0.1250000  -0.2886836  -0.1020616), wk =   0.0156250
        k(   29) = (   0.1250000  -0.1443418   0.0000000), wk =   0.0156250
        k(   30) = (   0.1250000  -0.1443418   0.1020616), wk =   0.0156250
        k(   31) = (   0.1250000  -0.1443418  -0.2041233), wk =   0.0156250
        k(   32) = (   0.1250000  -0.1443418  -0.1020616), wk =   0.0156250
        k(   33) = (   0.2500000   0.0000000   0.0000000), wk =   0.0156250
        k(   34) = (   0.2500000   0.0000000   0.1020616), wk =   0.0156250
        k(   35) = (   0.2500000   0.0000000  -0.2041233), wk =   0.0156250
        k(   36) = (   0.2500000   0.0000000  -0.1020616), wk =   0.0156250
        k(   37) = (   0.2500000   0.1443418   0.0000000), wk =   0.0156250
        k(   38) = (   0.2500000   0.1443418   0.1020616), wk =   0.0156250
        k(   39) = (   0.2500000   0.1443418  -0.2041233), wk =   0.0156250
        k(   40) = (   0.2500000   0.1443418  -0.1020616), wk =   0.0156250
        k(   41) = (   0.2500000  -0.2886836   0.0000000), wk =   0.0156250
        k(   42) = (   0.2500000  -0.2886836   0.1020616), wk =   0.0156250
        k(   43) = (   0.2500000  -0.2886836  -0.2041233), wk =   0.0156250
        k(   44) = (   0.2500000  -0.2886836  -0.1020616), wk =   0.0156250
        k(   45) = (   0.2500000  -0.1443418   0.0000000), wk =   0.0156250
        k(   46) = (   0.2500000  -0.1443418   0.1020616), wk =   0.0156250
        k(   47) = (   0.2500000  -0.1443418  -0.2041233), wk =   0.0156250
        k(   48) = (   0.2500000  -0.1443418  -0.1020616), wk =   0.0156250
        k(   49) = (   0.3750000   0.0000000   0.0000000), wk =   0.0156250
        k(   50) = (   0.3750000   0.0000000   0.1020616), wk =   0.0156250
        k(   51) = (   0.3750000   0.0000000  -0.2041233), wk =   0.0156250
        k(   52) = (   0.3750000   0.0000000  -0.1020616), wk =   0.0156250
        k(   53) = (   0.3750000   0.1443418   0.0000000), wk =   0.0156250
        k(   54) = (   0.3750000   0.1443418   0.1020616), wk =   0.0156250
        k(   55) = (   0.3750000   0.1443418  -0.2041233), wk =   0.0156250
        k(   56) = (   0.3750000   0.1443418  -0.1020616), wk =   0.0156250
        k(   57) = (   0.3750000  -0.2886836   0.0000000), wk =   0.0156250
        k(   58) = (   0.3750000  -0.2886836   0.1020616), wk =   0.0156250
        k(   59) = (   0.3750000  -0.2886836  -0.2041233), wk =   0.0156250
        k(   60) = (   0.3750000  -0.2886836  -0.1020616), wk =   0.0156250
        k(   61) = (   0.3750000  -0.1443418   0.0000000), wk =   0.0156250
        k(   62) = (   0.3750000  -0.1443418   0.1020616), wk =   0.0156250
        k(   63) = (   0.3750000  -0.1443418  -0.2041233), wk =   0.0156250
        k(   64) = (   0.3750000  -0.1443418  -0.1020616), wk =   0.0156250
        k(   65) = (  -0.5000000   0.0000000   0.0000000), wk =   0.0156250
        k(   66) = (  -0.5000000   0.0000000   0.1020616), wk =   0.0156250
        k(   67) = (  -0.5000000   0.0000000  -0.2041233), wk =   0.0156250
        k(   68) = (  -0.5000000   0.0000000  -0.1020616), wk =   0.0156250
        k(   69) = (  -0.5000000   0.1443418   0.0000000), wk =   0.0156250
        k(   70) = (  -0.5000000   0.1443418   0.1020616), wk =   0.0156250
        k(   71) = (  -0.5000000   0.1443418  -0.2041233), wk =   0.0156250
        k(   72) = (  -0.5000000   0.1443418  -0.1020616), wk =   0.0156250
        k(   73) = (  -0.5000000  -0.2886836   0.0000000), wk =   0.0156250
        k(   74) = (  -0.5000000  -0.2886836   0.1020616), wk =   0.0156250
        k(   75) = (  -0.5000000  -0.2886836  -0.2041233), wk =   0.0156250
        k(   76) = (  -0.5000000  -0.2886836  -0.1020616), wk =   0.0156250
        k(   77) = (  -0.5000000  -0.1443418   0.0000000), wk =   0.0156250
        k(   78) = (  -0.5000000  -0.1443418   0.1020616), wk =   0.0156250
        k(   79) = (  -0.5000000  -0.1443418  -0.2041233), wk =   0.0156250
        k(   80) = (  -0.5000000  -0.1443418  -0.1020616), wk =   0.0156250
        k(   81) = (  -0.3750000   0.0000000   0.0000000), wk =   0.0156250
        k(   82) = (  -0.3750000   0.0000000   0.1020616), wk =   0.0156250
        k(   83) = (  -0.3750000   0.0000000  -0.2041233), wk =   0.0156250
        k(   84) = (  -0.3750000   0.0000000  -0.1020616), wk =   0.0156250
        k(   85) = (  -0.3750000   0.1443418   0.0000000), wk =   0.0156250
        k(   86) = (  -0.3750000   0.1443418   0.1020616), wk =   0.0156250
        k(   87) = (  -0.3750000   0.1443418  -0.2041233), wk =   0.0156250
        k(   88) = (  -0.3750000   0.1443418  -0.1020616), wk =   0.0156250
        k(   89) = (  -0.3750000  -0.2886836   0.0000000), wk =   0.0156250
        k(   90) = (  -0.3750000  -0.2886836   0.1020616), wk =   0.0156250
        k(   91) = (  -0.3750000  -0.2886836  -0.2041233), wk =   0.0156250
        k(   92) = (  -0.3750000  -0.2886836  -0.1020616), wk =   0.0156250
        k(   93) = (  -0.3750000  -0.1443418   0.0000000), wk =   0.0156250
        k(   94) = (  -0.3750000  -0.1443418   0.1020616), wk =   0.0156250
        k(   95) = (  -0.3750000  -0.1443418  -0.2041233), wk =   0.0156250
        k(   96) = (  -0.3750000  -0.1443418  -0.1020616), wk =   0.0156250
        k(   97) = (  -0.2500000   0.0000000   0.0000000), wk =   0.0156250
        k(   98) = (  -0.2500000   0.0000000   0.1020616), wk =   0.0156250
        k(   99) = (  -0.2500000   0.0000000  -0.2041233), wk =   0.0156250
        k(  100) = (  -0.2500000   0.0000000  -0.1020616), wk =   0.0156250
        k(  101) = (  -0.2500000   0.1443418   0.0000000), wk =   0.0156250
        k(  102) = (  -0.2500000   0.1443418   0.1020616), wk =   0.0156250
        k(  103) = (  -0.2500000   0.1443418  -0.2041233), wk =   0.0156250
        k(  104) = (  -0.2500000   0.1443418  -0.1020616), wk =   0.0156250
        k(  105) = (  -0.2500000  -0.2886836   0.0000000), wk =   0.0156250
        k(  106) = (  -0.2500000  -0.2886836   0.1020616), wk =   0.0156250
        k(  107) = (  -0.2500000  -0.2886836  -0.2041233), wk =   0.0156250
        k(  108) = (  -0.2500000  -0.2886836  -0.1020616), wk =   0.0156250
        k(  109) = (  -0.2500000  -0.1443418   0.0000000), wk =   0.0156250
        k(  110) = (  -0.2500000  -0.1443418   0.1020616), wk =   0.0156250
        k(  111) = (  -0.2500000  -0.1443418  -0.2041233), wk =   0.0156250
        k(  112) = (  -0.2500000  -0.1443418  -0.1020616), wk =   0.0156250
        k(  113) = (  -0.1250000   0.0000000   0.0000000), wk =   0.0156250
        k(  114) = (  -0.1250000   0.0000000   0.1020616), wk =   0.0156250
        k(  115) = (  -0.1250000   0.0000000  -0.2041233), wk =   0.0156250
        k(  116) = (  -0.1250000   0.0000000  -0.1020616), wk =   0.0156250
        k(  117) = (  -0.1250000   0.1443418   0.0000000), wk =   0.0156250
        k(  118) = (  -0.1250000   0.1443418   0.1020616), wk =   0.0156250
        k(  119) = (  -0.1250000   0.1443418  -0.2041233), wk =   0.0156250
        k(  120) = (  -0.1250000   0.1443418  -0.1020616), wk =   0.0156250
        k(  121) = (  -0.1250000  -0.2886836   0.0000000), wk =   0.0156250
        k(  122) = (  -0.1250000  -0.2886836   0.1020616), wk =   0.0156250
        k(  123) = (  -0.1250000  -0.2886836  -0.2041233), wk =   0.0156250
        k(  124) = (  -0.1250000  -0.2886836  -0.1020616), wk =   0.0156250
        k(  125) = (  -0.1250000  -0.1443418   0.0000000), wk =   0.0156250
        k(  126) = (  -0.1250000  -0.1443418   0.1020616), wk =   0.0156250
        k(  127) = (  -0.1250000  -0.1443418  -0.2041233), wk =   0.0156250
        k(  128) = (  -0.1250000  -0.1443418  -0.1020616), wk =   0.0156250

                       cryst. coord.
        k(    1) = (   0.0000000   0.0000000   0.0000000), wk =   0.0156250
        k(    2) = (   0.0000000   0.0000000   0.2500000), wk =   0.0156250
        k(    3) = (   0.0000000   0.0000000  -0.5000000), wk =   0.0156250
        k(    4) = (   0.0000000   0.0000000  -0.2500000), wk =   0.0156250
        k(    5) = (   0.0000000   0.2500000   0.0000000), wk =   0.0156250
        k(    6) = (   0.0000000   0.2500000   0.2500000), wk =   0.0156250
        k(    7) = (   0.0000000   0.2500000  -0.5000000), wk =   0.0156250
        k(    8) = (   0.0000000   0.2500000  -0.2500000), wk =   0.0156250
        k(    9) = (   0.0000000  -0.5000000   0.0000000), wk =   0.0156250
        k(   10) = (   0.0000000  -0.5000000   0.2500000), wk =   0.0156250
        k(   11) = (   0.0000000  -0.5000000  -0.5000000), wk =   0.0156250
        k(   12) = (   0.0000000  -0.5000000  -0.2500000), wk =   0.0156250
        k(   13) = (   0.0000000  -0.2500000   0.0000000), wk =   0.0156250
        k(   14) = (   0.0000000  -0.2500000   0.2500000), wk =   0.0156250
        k(   15) = (   0.0000000  -0.2500000  -0.5000000), wk =   0.0156250
        k(   16) = (   0.0000000  -0.2500000  -0.2500000), wk =   0.0156250
        k(   17) = (   0.1250000   0.0000000   0.0000000), wk =   0.0156250
        k(   18) = (   0.1250000   0.0000000   0.2500000), wk =   0.0156250
        k(   19) = (   0.1250000   0.0000000  -0.5000000), wk =   0.0156250
        k(   20) = (   0.1250000   0.0000000  -0.2500000), wk =   0.0156250
        k(   21) = (   0.1250000   0.2500000   0.0000000), wk =   0.0156250
        k(   22) = (   0.1250000   0.2500000   0.2500000), wk =   0.0156250
        k(   23) = (   0.1250000   0.2500000  -0.5000000), wk =   0.0156250
        k(   24) = (   0.1250000   0.2500000  -0.2500000), wk =   0.0156250
        k(   25) = (   0.1250000  -0.5000000   0.0000000), wk =   0.0156250
        k(   26) = (   0.1250000  -0.5000000   0.2500000), wk =   0.0156250
        k(   27) = (   0.1250000  -0.5000000  -0.5000000), wk =   0.0156250
        k(   28) = (   0.1250000  -0.5000000  -0.2500000), wk =   0.0156250
        k(   29) = (   0.1250000  -0.2500000   0.0000000), wk =   0.0156250
        k(   30) = (   0.1250000  -0.2500000   0.2500000), wk =   0.0156250
        k(   31) = (   0.1250000  -0.2500000  -0.5000000), wk =   0.0156250
        k(   32) = (   0.1250000  -0.2500000  -0.2500000), wk =   0.0156250
        k(   33) = (   0.2500000   0.0000000   0.0000000), wk =   0.0156250
        k(   34) = (   0.2500000   0.0000000   0.2500000), wk =   0.0156250
        k(   35) = (   0.2500000   0.0000000  -0.5000000), wk =   0.0156250
        k(   36) = (   0.2500000   0.0000000  -0.2500000), wk =   0.0156250
        k(   37) = (   0.2500000   0.2500000   0.0000000), wk =   0.0156250
        k(   38) = (   0.2500000   0.2500000   0.2500000), wk =   0.0156250
        k(   39) = (   0.2500000   0.2500000  -0.5000000), wk =   0.0156250
        k(   40) = (   0.2500000   0.2500000  -0.2500000), wk =   0.0156250
        k(   41) = (   0.2500000  -0.5000000   0.0000000), wk =   0.0156250
        k(   42) = (   0.2500000  -0.5000000   0.2500000), wk =   0.0156250
        k(   43) = (   0.2500000  -0.5000000  -0.5000000), wk =   0.0156250
        k(   44) = (   0.2500000  -0.5000000  -0.2500000), wk =   0.0156250
        k(   45) = (   0.2500000  -0.2500000   0.0000000), wk =   0.0156250
        k(   46) = (   0.2500000  -0.2500000   0.2500000), wk =   0.0156250
        k(   47) = (   0.2500000  -0.2500000  -0.5000000), wk =   0.0156250
        k(   48) = (   0.2500000  -0.2500000  -0.2500000), wk =   0.0156250
        k(   49) = (   0.3750000   0.0000000   0.0000000), wk =   0.0156250
        k(   50) = (   0.3750000   0.0000000   0.2500000), wk =   0.0156250
        k(   51) = (   0.3750000   0.0000000  -0.5000000), wk =   0.0156250
        k(   52) = (   0.3750000   0.0000000  -0.2500000), wk =   0.0156250
        k(   53) = (   0.3750000   0.2500000   0.0000000), wk =   0.0156250
        k(   54) = (   0.3750000   0.2500000   0.2500000), wk =   0.0156250
        k(   55) = (   0.3750000   0.2500000  -0.5000000), wk =   0.0156250
        k(   56) = (   0.3750000   0.2500000  -0.2500000), wk =   0.0156250
        k(   57) = (   0.3750000  -0.5000000   0.0000000), wk =   0.0156250
        k(   58) = (   0.3750000  -0.5000000   0.2500000), wk =   0.0156250
        k(   59) = (   0.3750000  -0.5000000  -0.5000000), wk =   0.0156250
        k(   60) = (   0.3750000  -0.5000000  -0.2500000), wk =   0.0156250
        k(   61) = (   0.3750000  -0.2500000   0.0000000), wk =   0.0156250
        k(   62) = (   0.3750000  -0.2500000   0.2500000), wk =   0.0156250
        k(   63) = (   0.3750000  -0.2500000  -0.5000000), wk =   0.0156250
        k(   64) = (   0.3750000  -0.2500000  -0.2500000), wk =   0.0156250
        k(   65) = (  -0.5000000   0.0000000   0.0000000), wk =   0.0156250
        k(   66) = (  -0.5000000   0.0000000   0.2500000), wk =   0.0156250
        k(   67) = (  -0.5000000   0.0000000  -0.5000000), wk =   0.0156250
        k(   68) = (  -0.5000000   0.0000000  -0.2500000), wk =   0.0156250
        k(   69) = (  -0.5000000   0.2500000   0.0000000), wk =   0.0156250
        k(   70) = (  -0.5000000   0.2500000   0.2500000), wk =   0.0156250
        k(   71) = (  -0.5000000   0.2500000  -0.5000000), wk =   0.0156250
        k(   72) = (  -0.5000000   0.2500000  -0.2500000), wk =   0.0156250
        k(   73) = (  -0.5000000  -0.5000000   0.0000000), wk =   0.0156250
        k(   74) = (  -0.5000000  -0.5000000   0.2500000), wk =   0.0156250
        k(   75) = (  -0.5000000  -0.5000000  -0.5000000), wk =   0.0156250
        k(   76) = (  -0.5000000  -0.5000000  -0.2500000), wk =   0.0156250
        k(   77) = (  -0.5000000  -0.2500000   0.0000000), wk =   0.0156250
        k(   78) = (  -0.5000000  -0.2500000   0.2500000), wk =   0.0156250
        k(   79) = (  -0.5000000  -0.2500000  -0.5000000), wk =   0.0156250
        k(   80) = (  -0.5000000  -0.2500000  -0.2500000), wk =   0.0156250
        k(   81) = (  -0.3750000   0.0000000   0.0000000), wk =   0.0156250
        k(   82) = (  -0.3750000   0.0000000   0.2500000), wk =   0.0156250
        k(   83) = (  -0.3750000   0.0000000  -0.5000000), wk =   0.0156250
        k(   84) = (  -0.3750000   0.0000000  -0.2500000), wk =   0.0156250
        k(   85) = (  -0.3750000   0.2500000   0.0000000), wk =   0.0156250
        k(   86) = (  -0.3750000   0.2500000   0.2500000), wk =   0.0156250
        k(   87) = (  -0.3750000   0.2500000  -0.5000000), wk =   0.0156250
        k(   88) = (  -0.3750000   0.2500000  -0.2500000), wk =   0.0156250
        k(   89) = (  -0.3750000  -0.5000000   0.0000000), wk =   0.0156250
        k(   90) = (  -0.3750000  -0.5000000   0.2500000), wk =   0.0156250
        k(   91) = (  -0.3750000  -0.5000000  -0.5000000), wk =   0.0156250
        k(   92) = (  -0.3750000  -0.5000000  -0.2500000), wk =   0.0156250
        k(   93) = (  -0.3750000  -0.2500000   0.0000000), wk =   0.0156250
        k(   94) = (  -0.3750000  -0.2500000   0.2500000), wk =   0.0156250
        k(   95) = (  -0.3750000  -0.2500000  -0.5000000), wk =   0.0156250
        k(   96) = (  -0.3750000  -0.2500000  -0.2500000), wk =   0.0156250
        k(   97) = (  -0.2500000   0.0000000   0.0000000), wk =   0.0156250
        k(   98) = (  -0.2500000   0.0000000   0.2500000), wk =   0.0156250
        k(   99) = (  -0.2500000   0.0000000  -0.5000000), wk =   0.0156250
        k(  100) = (  -0.2500000   0.0000000  -0.2500000), wk =   0.0156250
        k(  101) = (  -0.2500000   0.2500000   0.0000000), wk =   0.0156250
        k(  102) = (  -0.2500000   0.2500000   0.2500000), wk =   0.0156250
        k(  103) = (  -0.2500000   0.2500000  -0.5000000), wk =   0.0156250
        k(  104) = (  -0.2500000   0.2500000  -0.2500000), wk =   0.0156250
        k(  105) = (  -0.2500000  -0.5000000   0.0000000), wk =   0.0156250
        k(  106) = (  -0.2500000  -0.5000000   0.2500000), wk =   0.0156250
        k(  107) = (  -0.2500000  -0.5000000  -0.5000000), wk =   0.0156250
        k(  108) = (  -0.2500000  -0.5000000  -0.2500000), wk =   0.0156250
        k(  109) = (  -0.2500000  -0.2500000   0.0000000), wk =   0.0156250
        k(  110) = (  -0.2500000  -0.2500000   0.2500000), wk =   0.0156250
        k(  111) = (  -0.2500000  -0.2500000  -0.5000000), wk =   0.0156250
        k(  112) = (  -0.2500000  -0.2500000  -0.2500000), wk =   0.0156250
        k(  113) = (  -0.1250000   0.0000000   0.0000000), wk =   0.0156250
        k(  114) = (  -0.1250000   0.0000000   0.2500000), wk =   0.0156250
        k(  115) = (  -0.1250000   0.0000000  -0.5000000), wk =   0.0156250
        k(  116) = (  -0.1250000   0.0000000  -0.2500000), wk =   0.0156250
        k(  117) = (  -0.1250000   0.2500000   0.0000000), wk =   0.0156250
        k(  118) = (  -0.1250000   0.2500000   0.2500000), wk =   0.0156250
        k(  119) = (  -0.1250000   0.2500000  -0.5000000), wk =   0.0156250
        k(  120) = (  -0.1250000   0.2500000  -0.2500000), wk =   0.0156250
        k(  121) = (  -0.1250000  -0.5000000   0.0000000), wk =   0.0156250
        k(  122) = (  -0.1250000  -0.5000000   0.2500000), wk =   0.0156250
        k(  123) = (  -0.1250000  -0.5000000  -0.5000000), wk =   0.0156250
        k(  124) = (  -0.1250000  -0.5000000  -0.2500000), wk =   0.0156250
        k(  125) = (  -0.1250000  -0.2500000   0.0000000), wk =   0.0156250
        k(  126) = (  -0.1250000  -0.2500000   0.2500000), wk =   0.0156250
        k(  127) = (  -0.1250000  -0.2500000  -0.5000000), wk =   0.0156250
        k(  128) = (  -0.1250000  -0.2500000  -0.2500000), wk =   0.0156250

     Dense  grid:    27369 G-vectors     FFT dimensions: (  24,  40,  60)

     Largest allocated arrays     est. size (Mb)     dimensions
        Kohn-Sham Wavefunctions         0.63 Mb     (    586,   70)
        NL pseudopotentials             0.43 Mb     (    586,   48)
        Each V/rho on FFT grid          0.15 Mb     (   9600)
        Each G-vector array             0.03 Mb     (   4563)
        G-vector shells                 0.01 Mb     (   1920)
     Largest temporary arrays     est. size (Mb)     dimensions
        Auxiliary wavefunctions         2.50 Mb     (    586,  280)
        Each subspace H/S matrix        1.20 Mb     ( 280, 280)
        Each <psi_i|beta_j> matrix      0.05 Mb     (     48,   70)

     The potential is recalculated from file :
     ./SCRATCH/si111.save/charge-density.dat

     Starting wfc are   48 randomized atomic wfcs

     total cpu time spent up to now is        0.1 secs

     per-process dynamical memory:     6.3 Mb

     Band Structure Calculation
     Davidson diagonalization with overlap

     Computing kpt #:     1
     total cpu time spent up to now is        2.4 secs

     Computing kpt #:     2
     total cpu time spent up to now is        5.0 secs

     Computing kpt #:     3
     total cpu time spent up to now is        7.3 secs

     Computing kpt #:     4
     total cpu time spent up to now is       10.0 secs

     Computing kpt #:     5
     total cpu time spent up to now is       12.8 secs

     Computing kpt #:     6
     total cpu time spent up to now is       15.1 secs

     Computing kpt #:     7
     total cpu time spent up to now is       17.7 secs

     Computing kpt #:     8
     total cpu time spent up to now is       20.0 secs

     Computing kpt #:     9
     total cpu time spent up to now is       22.4 secs

     Computing kpt #:    10
     total cpu time spent up to now is       24.9 secs

     Computing kpt #:    11
     total cpu time spent up to now is       28.3 secs

     Computing kpt #:    12
     total cpu time spent up to now is       30.8 secs

     Computing kpt #:    13
     total cpu time spent up to now is       33.6 secs

     Computing kpt #:    14
     total cpu time spent up to now is       35.9 secs

     Computing kpt #:    15
     total cpu time spent up to now is       38.5 secs

     Computing kpt #:    16
     total cpu time spent up to now is       40.9 secs

     Computing kpt #:    17
     total cpu time spent up to now is       43.7 secs

     Computing kpt #:    18
     total cpu time spent up to now is       46.2 secs

     Computing kpt #:    19
     total cpu time spent up to now is       48.9 secs

     Computing kpt #:    20
     total cpu time spent up to now is       51.5 secs

     Computing kpt #:    21
     total cpu time spent up to now is       54.1 secs

     Computing kpt #:    22
     total cpu time spent up to now is       57.3 secs

     Computing kpt #:    23
     total cpu time spent up to now is       59.8 secs

     Computing kpt #:    24
     total cpu time spent up to now is       62.3 secs

     Computing kpt #:    25
     total cpu time spent up to now is       65.1 secs

     Computing kpt #:    26
     total cpu time spent up to now is       67.7 secs

     Computing kpt #:    27
     total cpu time spent up to now is       70.2 secs

     Computing kpt #:    28
     total cpu time spent up to now is       72.8 secs

     Computing kpt #:    29
     total cpu time spent up to now is       75.3 secs

     Computing kpt #:    30
     total cpu time spent up to now is       78.0 secs

     Computing kpt #:    31
     total cpu time spent up to now is       80.6 secs

     Computing kpt #:    32
     total cpu time spent up to now is       83.8 secs

     Computing kpt #:    33
     total cpu time spent up to now is       86.3 secs

     Computing kpt #:    34
     total cpu time spent up to now is       89.6 secs

     Computing kpt #:    35
     total cpu time spent up to now is       91.9 secs

     Computing kpt #:    36
     total cpu time spent up to now is       95.6 secs

     Computing kpt #:    37
     total cpu time spent up to now is       98.1 secs

     Computing kpt #:    38
     total cpu time spent up to now is      100.5 secs

     Computing kpt #:    39
     total cpu time spent up to now is      103.5 secs

     Computing kpt #:    40
     total cpu time spent up to now is      106.1 secs

     Computing kpt #:    41
     total cpu time spent up to now is      108.5 secs

     Computing kpt #:    42
     total cpu time spent up to now is      111.9 secs

     Computing kpt #:    43
     total cpu time spent up to now is      114.9 secs

     Computing kpt #:    44
     total cpu time spent up to now is      118.3 secs

     Computing kpt #:    45
     total cpu time spent up to now is      120.9 secs

     Computing kpt #:    46
     total cpu time spent up to now is      123.3 secs

     Computing kpt #:    47
     total cpu time spent up to now is      126.2 secs

     Computing kpt #:    48
     total cpu time spent up to now is      128.8 secs

     Computing kpt #:    49
     total cpu time spent up to now is      132.8 secs

     Computing kpt #:    50
     total cpu time spent up to now is      136.2 secs

     Computing kpt #:    51
     total cpu time spent up to now is      138.7 secs

     Computing kpt #:    52
     total cpu time spent up to now is      142.0 secs

     Computing kpt #:    53
     total cpu time spent up to now is      144.7 secs

     Computing kpt #:    54
     total cpu time spent up to now is      147.9 secs

     Computing kpt #:    55
     total cpu time spent up to now is      151.2 secs

     Computing kpt #:    56
     total cpu time spent up to now is      154.2 secs

     Computing kpt #:    57
     total cpu time spent up to now is      156.7 secs

     Computing kpt #:    58
     total cpu time spent up to now is      159.3 secs

     Computing kpt #:    59
     total cpu time spent up to now is      162.0 secs

     Computing kpt #:    60
     total cpu time spent up to now is      164.7 secs

     Computing kpt #:    61
     total cpu time spent up to now is      167.4 secs

     Computing kpt #:    62
     total cpu time spent up to now is      170.6 secs

     Computing kpt #:    63
     total cpu time spent up to now is      173.8 secs

     Computing kpt #:    64
     total cpu time spent up to now is      176.8 secs

     Computing kpt #:    65
     total cpu time spent up to now is      179.2 secs

     Computing kpt #:    66
     total cpu time spent up to now is      182.0 secs

     Computing kpt #:    67
     total cpu time spent up to now is      185.0 secs

     Computing kpt #:    68
     total cpu time spent up to now is      187.7 secs

     Computing kpt #:    69
     total cpu time spent up to now is      190.1 secs

     Computing kpt #:    70
     total cpu time spent up to now is      193.1 secs

     Computing kpt #:    71
     total cpu time spent up to now is      195.8 secs

     Computing kpt #:    72
     total cpu time spent up to now is      198.1 secs

     Computing kpt #:    73
     total cpu time spent up to now is      201.4 secs

     Computing kpt #:    74
     total cpu time spent up to now is      204.2 secs

     Computing kpt #:    75
     total cpu time spent up to now is      207.0 secs

     Computing kpt #:    76
     total cpu time spent up to now is      209.7 secs

     Computing kpt #:    77
     total cpu time spent up to now is      212.1 secs

     Computing kpt #:    78
     total cpu time spent up to now is      214.5 secs

     Computing kpt #:    79
     total cpu time spent up to now is      217.1 secs

     Computing kpt #:    80
     total cpu time spent up to now is      220.1 secs

     Computing kpt #:    81
     total cpu time spent up to now is      223.7 secs

     Computing kpt #:    82
     total cpu time spent up to now is      227.1 secs

     Computing kpt #:    83
     total cpu time spent up to now is      229.5 secs

     Computing kpt #:    84
     total cpu time spent up to now is      233.4 secs

     Computing kpt #:    85
     total cpu time spent up to now is      236.3 secs

     Computing kpt #:    86
     total cpu time spent up to now is      239.4 secs

     Computing kpt #:    87
     total cpu time spent up to now is      242.7 secs

     Computing kpt #:    88
     total cpu time spent up to now is      245.9 secs

     Computing kpt #:    89
     total cpu time spent up to now is      248.4 secs

     Computing kpt #:    90
     total cpu time spent up to now is      251.1 secs

     Computing kpt #:    91
     total cpu time spent up to now is      253.7 secs

     Computing kpt #:    92
     total cpu time spent up to now is      256.4 secs

     Computing kpt #:    93
     total cpu time spent up to now is      259.2 secs

     Computing kpt #:    94
     total cpu time spent up to now is      262.4 secs

     Computing kpt #:    95
     total cpu time spent up to now is      265.7 secs

     Computing kpt #:    96
     total cpu time spent up to now is      268.8 secs

     Computing kpt #:    97
     total cpu time spent up to now is      271.3 secs

     Computing kpt #:    98
     total cpu time spent up to now is      274.5 secs

     Computing kpt #:    99
     total cpu time spent up to now is      276.8 secs

     Computing kpt #:   100
     total cpu time spent up to now is      280.0 secs

     Computing kpt #:   101
     total cpu time spent up to now is      282.6 secs

     Computing kpt #:   102
     total cpu time spent up to now is      285.1 secs

     Computing kpt #:   103
     total cpu time spent up to now is      288.1 secs

     Computing kpt #:   104
     total cpu time spent up to now is      290.5 secs

     Computing kpt #:   105
     total cpu time spent up to now is      293.1 secs

     Computing kpt #:   106
     total cpu time spent up to now is      296.5 secs

     Computing kpt #:   107
     total cpu time spent up to now is      299.5 secs

     Computing kpt #:   108
     total cpu time spent up to now is      302.9 secs

     Computing kpt #:   109
     total cpu time spent up to now is      305.4 secs

     Computing kpt #:   110
     total cpu time spent up to now is      308.0 secs

     Computing kpt #:   111
     total cpu time spent up to now is      311.0 secs

     Computing kpt #:   112
     total cpu time spent up to now is      313.4 secs

     Computing kpt #:   113
     total cpu time spent up to now is      316.2 secs

     Computing kpt #:   114
     total cpu time spent up to now is      318.6 secs

     Computing kpt #:   115
     total cpu time spent up to now is      321.4 secs

     Computing kpt #:   116
     total cpu time spent up to now is      323.9 secs

     Computing kpt #:   117
     total cpu time spent up to now is      326.4 secs

     Computing kpt #:   118
     total cpu time spent up to now is      329.6 secs

     Computing kpt #:   119
     total cpu time spent up to now is      332.2 secs

     Computing kpt #:   120
     total cpu time spent up to now is      334.8 secs

     Computing kpt #:   121
     total cpu time spent up to now is      337.6 secs

     Computing kpt #:   122
     total cpu time spent up to now is      340.1 secs

     Computing kpt #:   123
     total cpu time spent up to now is      342.5 secs

     Computing kpt #:   124
     total cpu time spent up to now is      345.2 secs

     Computing kpt #:   125
     total cpu time spent up to now is      347.7 secs

     Computing kpt #:   126
     total cpu time spent up to now is      350.3 secs

     Computing kpt #:   127
     total cpu time spent up to now is      352.9 secs

     Computing kpt #:   128
     total cpu time spent up to now is      356.1 secs

     ethr =  2.08E-11,  avg # of iterations = 36.0

     total cpu time spent up to now is      356.1 secs

     End of band structure calculation

          k = 0.0000 0.0000 0.0000     band energies (ev):

    -5.8849  -4.5042  -4.5041  -3.3826  -3.3824  -1.7359  -1.7356  -0.5532
    -0.5528   0.7173   0.7176   3.1890   3.1892   3.2653   3.2655   4.2693
     4.2694   5.0480   5.0481   5.0482   5.0485   6.0505   6.0506   6.0507
     6.7132   6.7134   7.7772   7.7775   8.0592   8.0592   8.6137   8.6137
     8.6141   9.3379   9.5566   9.5570   9.5572   9.5573  10.1242  10.1244
    10.6678  10.6681  12.4198  12.4198  13.7637  13.7680  13.7681  13.8362
    13.8365  14.0403  14.0404  14.0406  14.0406  14.9773  14.9773  15.3496
    15.3497  16.0547  16.0549  16.5022  16.5025  16.9715  16.9716  17.2151
    17.2152  17.2156  17.6890  17.6893  17.8464  17.8464

     occupation numbers 
     0.0156   0.0156   0.0156   0.0156   0.0156   0.0156   0.0156   0.0156
     0.0156   0.0156   0.0156   0.0156   0.0156   0.0156   0.0156   0.0156
     0.0156   0.0156   0.0156   0.0156   0.0156   0.0156   0.0156   0.0156
     0.0000   0.0000   0.0000   0.0000   0.0000   0.0000   0.0000   0.0000
     0.0000   0.0000   0.0000   0.0000   0.0000   0.0000   0.0000   0.0000
     0.0000   0.0000   0.0000   0.0000   0.0000   0.0000   0.0000   0.0000
     0.0000   0.0000   0.0000   0.0000   0.0000   0.0000   0.0000   0.0000
     0.0000   0.0000   0.0000   0.0000   0.0000   0.0000   0.0000   0.0000
     0.0000   0.0000   0.0000   0.0000   0.0000   0.0000

          k = 0.0000 0.0000 0.1021     band energies (ev):

    -5.7938  -5.0838  -3.8782  -3.5018  -3.1581  -2.3324  -1.0680  -0.8229
    -0.4182  -0.3140   2.1265   2.4991   2.8608   3.2655   3.8393   4.2647
     4.6711   4.8990   4.8992   5.1927   5.2891   5.2893   5.9062   5.9064
     6.7781   7.3497   7.5315   7.6091   8.0432   8.0633   8.6407   8.8238
     8.8241   9.3030   9.4452   9.4457   9.5534   9.5538   9.7437   9.9991
    10.4549  11.7407  11.9590  12.8362  13.2629  13.2632  13.5496  13.5499
    13.7006  13.8421  14.1558  14.8642  15.0192  15.0661  15.1379  15.3123
    15.3125  16.1387  16.2107  16.5403  16.5613  16.8148  16.8721  16.9095
    17.3347  17.5049  17.6949  17.7906  17.7910  18.1840

     occupation numbers 
     0.0156   0.0156   0.0156   0.0156   0.0156   0.0156   0.0156   0.0156
     0.0156   0.0156   0.0156   0.0156   0.0156   0.0156   0.0156   0.0156
     0.0156   0.0156   0.0156   0.0156   0.0156   0.0156   0.0156   0.0156
     0.0000   0.0000   0.0000   0.0000   0.0000   0.0000   0.0000   0.0000
     0.0000   0.0000   0.0000   0.0000   0.0000   0.0000   0.0000   0.0000
     0.0000   0.0000   0.0000   0.0000   0.0000   0.0000   0.0000   0.0000
     0.0000   0.0000   0.0000   0.0000   0.0000   0.0000   0.0000   0.0000
     0.0000   0.0000   0.0000   0.0000   0.0000   0.0000   0.0000   0.0000
     0.0000   0.0000   0.0000   0.0000   0.0000   0.0000

          k = 0.0000 0.0000-0.2041     band energies (ev):

    -5.5234  -5.5231  -3.5384  -3.5381  -2.8105  -2.8103  -0.9292  -0.9291
    -0.4845  -0.4843   2.3960   2.3961   3.4887   3.4889   3.6723   3.6726
     4.8491   4.8493   4.8494   4.8495   5.5989   5.5990   5.5991   5.5993
     7.0705   7.0707   7.5519   7.5525   8.3697   8.3698   8.7272   8.7274
     9.2575   9.2578   9.2580   9.2581   9.3912   9.3913   9.3914   9.3917
    11.4012  11.4015  13.1652  13.1653  13.1655  13.1656  13.4577  13.4579
    13.4761  13.4762  13.6164  13.6167  14.9262  14.9263  16.5552  16.5552
    16.5598  16.5599  16.5868  16.5869  16.5870  16.5871  16.7154  16.7155
    17.1849  17.1850  17.3470  17.3472  17.3472  17.3475

     occupation numbers 
     0.0156   0.0156   0.0156   0.0156   0.0156   0.0156   0.0156   0.0156
     0.0156   0.0156   0.0156   0.0156   0.0156   0.0156   0.0156   0.0156
     0.0156   0.0156   0.0156   0.0156   0.0156   0.0156   0.0156   0.0156
     0.0000   0.0000   0.0000   0.0000   0.0000   0.0000   0.0000   0.0000
     0.0000   0.0000   0.0000   0.0000   0.0000   0.0000   0.0000   0.0000
     0.0000   0.0000   0.0000   0.0000   0.0000   0.0000   0.0000   0.0000
     0.0000   0.0000   0.0000   0.0000   0.0000   0.0000   0.0000   0.0000
     0.0000   0.0000   0.0000   0.0000   0.0000   0.0000   0.0000   0.0000
     0.0000   0.0000   0.0000   0.0000   0.0000   0.0000

          k = 0.0000 0.0000-0.1021     band energies (ev):

    -5.7938  -5.0838  -3.8782  -3.5018  -3.1581  -2.3324  -1.0680  -0.8229
    -0.4182  -0.3140   2.1265   2.4991   2.8608   3.2655   3.8393   4.2647
     4.6711   4.8990   4.8992   5.1927   5.2891   5.2893   5.9062   5.9064
     6.7781   7.3497   7.5315   7.6091   8.0432   8.0633   8.6407   8.8238
     8.8241   9.3030   9.4452   9.4457   9.5534   9.5538   9.7437   9.9991
    10.4549  11.7407  11.9590  12.8362  13.2629  13.2632  13.5496  13.5499
    13.7006  13.8421  14.1558  14.8642  15.0192  15.0661  15.1379  15.3123
    15.3125  16.1387  16.2107  16.5403  16.5613  16.8148  16.8721  16.9095
    17.3347  17.5049  17.6949  17.7906  17.7910  18.1840

     occupation numbers 
     0.0156   0.0156   0.0156   0.0156   0.0156   0.0156   0.0156   0.0156
     0.0156   0.0156   0.0156   0.0156   0.0156   0.0156   0.0156   0.0156
     0.0156   0.0156   0.0156   0.0156   0.0156   0.0156   0.0156   0.0156
     0.0000   0.0000   0.0000   0.0000   0.0000   0.0000   0.0000   0.0000
     0.0000   0.0000   0.0000   0.0000   0.0000   0.0000   0.0000   0.0000
     0.0000   0.0000   0.0000   0.0000   0.0000   0.0000   0.0000   0.0000
     0.0000   0.0000   0.0000   0.0000   0.0000   0.0000   0.0000   0.0000
     0.0000   0.0000   0.0000   0.0000   0.0000   0.0000   0.0000   0.0000
     0.0000   0.0000   0.0000   0.0000   0.0000   0.0000

          k = 0.0000 0.1443 0.0000     band energies (ev):

    -5.7030  -4.3288  -4.3245  -4.3243  -3.2231  -2.9089  -0.4865  -0.3991
     0.7718   0.7719   0.7821   2.4688   2.9627   3.3472   3.6391   4.2118
     4.2118   4.3758   4.4594   4.4595   4.6849   5.0973   5.6175   5.8003
     6.8145   7.5540   8.1128   8.2644   8.2646   8.5782   8.6060   8.8718
     9.2062   9.6682   9.6687   9.8165   9.8219  10.4878  10.5090  10.5090
    10.7357  10.8998  11.4746  11.4751  12.7684  12.9311  13.0633  13.6790
    13.7749  14.0198  14.0251  14.3596  14.3612  14.5048  15.2869  15.2871
    15.3752  15.3753  15.5521  15.8247  15.8250  16.7891  16.8227  17.4592
    17.5726  17.6784  17.6902  17.9322  17.9743  18.3730

     occupation numbers 
     0.0156   0.0156   0.0156   0.0156   0.0156   0.0156   0.0156   0.0156
     0.0156   0.0156   0.0156   0.0156   0.0156   0.0156   0.0156   0.0156
     0.0156   0.0156   0.0156   0.0156   0.0156   0.0156   0.0156   0.0156
     0.0000   0.0000   0.0000   0.0000   0.0000   0.0000   0.0000   0.0000
     0.0000   0.0000   0.0000   0.0000   0.0000   0.0000   0.0000   0.0000
     0.0000   0.0000   0.0000   0.0000   0.0000   0.0000   0.0000   0.0000
     0.0000   0.0000   0.0000   0.0000   0.0000   0.0000   0.0000   0.0000
     0.0000   0.0000   0.0000   0.0000   0.0000   0.0000   0.0000   0.0000
     0.0000   0.0000   0.0000   0.0000   0.0000   0.0000

          k = 0.0000 0.1443 0.1021     band energies (ev):

    -5.6128  -4.9032  -4.2101  -3.7022  -3.7020  -2.2788  -1.0531  -0.3268
    -0.3268   1.1303   2.1220   2.2335   3.4098   3.5196   3.5813   3.5815
     4.0283   4.1751   4.6052   4.6072   4.7819   4.7820   5.3954   5.8389
     6.9720   7.7001   8.2627   8.3796   8.3799   8.5968   8.6120   8.9708
     9.2360   9.6418   9.6420   9.6640   9.7237   9.9174   9.9175  10.5986
    10.8251  10.9652  11.1716  11.6573  12.9690  13.5186  13.8545  13.8547
    14.1203  14.1426  14.1429  14.1720  14.2495  14.4917  14.7893  15.1500
    15.1503  15.8227  15.8309  15.8676  15.9429  15.9842  16.6871  16.8396
    17.1433  17.1433  18.0321  18.2475  18.3622  18.3627

     occupation numbers 
     0.0156   0.0156   0.0156   0.0156   0.0156   0.0156   0.0156   0.0156
     0.0156   0.0156   0.0156   0.0156   0.0156   0.0156   0.0156   0.0156
     0.0156   0.0156   0.0156   0.0156   0.0156   0.0156   0.0156   0.0156
     0.0000   0.0000   0.0000   0.0000   0.0000   0.0000   0.0000   0.0000
     0.0000   0.0000   0.0000   0.0000   0.0000   0.0000   0.0000   0.0000
     0.0000   0.0000   0.0000   0.0000   0.0000   0.0000   0.0000   0.0000
     0.0000   0.0000   0.0000   0.0000   0.0000   0.0000   0.0000   0.0000
     0.0000   0.0000   0.0000   0.0000   0.0000   0.0000   0.0000   0.0000
     0.0000   0.0000   0.0000   0.0000   0.0000   0.0000

          k = 0.0000 0.1443-0.2041     band energies (ev):

    -5.3439  -5.3417  -4.0597  -3.9288  -3.3573  -2.1407  -1.1483  -0.8374
    -0.0735   0.9703   1.7169   3.3744   3.3759   3.5458   3.6183   3.6699
     3.6710   4.4135   4.5557   4.6732   4.8783   4.9829   4.9891   5.7571
     7.0355   7.2113   7.8157   8.0452   8.2413   8.2847   9.0739   9.1731
     9.3742   9.4678   9.5346   9.5403   9.7830  10.0503  10.1363  10.3139
    10.7474  11.5250  12.4137  12.8106  12.8765  12.9486  13.4902  13.7461
    13.9551  13.9838  14.0680  14.1809  14.1969  14.4308  14.5572  14.8482
    15.0372  15.5969  15.6589  15.6989  16.1401  16.1414  16.1919  17.0200
    17.1253  17.3561  18.2051  18.3205  18.4495  18.4847

     occupation numbers 
     0.0156   0.0156   0.0156   0.0156   0.0156   0.0156   0.0156   0.0156
     0.0156   0.0156   0.0156   0.0156   0.0156   0.0156   0.0156   0.0156
     0.0156   0.0156   0.0156   0.0156   0.0156   0.0156   0.0156   0.0156
     0.0000   0.0000   0.0000   0.0000   0.0000   0.0000   0.0000   0.0000
     0.0000   0.0000   0.0000   0.0000   0.0000   0.0000   0.0000   0.0000
     0.0000   0.0000   0.0000   0.0000   0.0000   0.0000   0.0000   0.0000
     0.0000   0.0000   0.0000   0.0000   0.0000   0.0000   0.0000   0.0000
     0.0000   0.0000   0.0000   0.0000   0.0000   0.0000   0.0000   0.0000
     0.0000   0.0000   0.0000   0.0000   0.0000   0.0000

          k = 0.0000 0.1443-0.1021     band energies (ev):

    -5.6118  -4.9065  -4.2719  -3.6978  -3.4875  -2.6644  -0.7150  -0.3359
     0.3078   0.3357   1.7505   2.1102   3.4361   3.4362   3.8742   3.8882
     3.9551   4.4439   4.7245   4.8465   4.9113   5.2418   5.2419   5.4543
     6.6218   7.5453   7.6125   7.8746   8.0415   8.2104   8.8801   9.3852
     9.5620   9.5751   9.7040   9.7458   9.7460   9.8294  10.2666  10.3666
    11.7668  11.8958  12.1982  12.3187  12.5074  12.5547  12.6791  13.4052
    13.9961  14.0395  14.0397  14.0933  14.1349  14.3306  14.8602  14.8638
    15.0366  15.2668  15.5119  15.9568  16.5277  16.5680  16.6345  17.2515
    17.6679  17.6885  17.6886  17.7426  18.1437  18.4892

     occupation numbers 
     0.0156   0.0156   0.0156   0.0156   0.0156   0.0156   0.0156   0.0156
     0.0156   0.0156   0.0156   0.0156   0.0156   0.0156   0.0156   0.0156
     0.0156   0.0156   0.0156   0.0156   0.0156   0.0156   0.0156   0.0156
     0.0000   0.0000   0.0000   0.0000   0.0000   0.0000   0.0000   0.0000
     0.0000   0.0000   0.0000   0.0000   0.0000   0.0000   0.0000   0.0000
     0.0000   0.0000   0.0000   0.0000   0.0000   0.0000   0.0000   0.0000
     0.0000   0.0000   0.0000   0.0000   0.0000   0.0000   0.0000   0.0000
     0.0000   0.0000   0.0000   0.0000   0.0000   0.0000   0.0000   0.0000
     0.0000   0.0000   0.0000   0.0000   0.0000   0.0000

          k = 0.0000-0.2887 0.0000     band energies (ev):

    -5.1676  -5.1672  -3.8355  -3.8354  -3.7871  -3.7870   0.5909   0.5911
     0.6176   0.6176   2.2742   2.2743   2.6267   2.6268   3.0486   3.0487
     3.8002   3.8006   4.7198   4.7199   4.9403   4.9406   5.1215   5.1215
     7.4437   7.4440   8.4558   8.4558   8.4714   8.4714   9.2528   9.2531
     9.2613   9.2613  10.1092  10.1092  10.8313  10.8314  11.1223  11.1224
    11.4068  11.4069  11.9125  11.9126  12.1133  12.1133  12.2308  12.2310
    12.5048  12.5048  13.3714  13.3717  13.9357  13.9359  15.4183  15.4184
    15.5940  15.5941  16.6484  16.6486  16.8840  16.8843  17.2425  17.2425
    17.3678  17.3679  18.4387  18.4389  18.5144  18.5144

     occupation numbers 
     0.0156   0.0156   0.0156   0.0156   0.0156   0.0156   0.0156   0.0156
     0.0156   0.0156   0.0156   0.0156   0.0156   0.0156   0.0156   0.0156
     0.0156   0.0156   0.0156   0.0156   0.0156   0.0156   0.0156   0.0156
     0.0000   0.0000   0.0000   0.0000   0.0000   0.0000   0.0000   0.0000
     0.0000   0.0000   0.0000   0.0000   0.0000   0.0000   0.0000   0.0000
     0.0000   0.0000   0.0000   0.0000   0.0000   0.0000   0.0000   0.0000
     0.0000   0.0000   0.0000   0.0000   0.0000   0.0000   0.0000   0.0000
     0.0000   0.0000   0.0000   0.0000   0.0000   0.0000   0.0000   0.0000
     0.0000   0.0000   0.0000   0.0000   0.0000   0.0000

          k = 0.0000-0.2887 0.1021     band energies (ev):

    -5.0837  -5.0727  -4.4000  -4.3644  -3.2093  -3.1584  -0.3137  -0.2348
     1.2037   1.6480   2.0106   2.1266   2.4990   2.9395   3.1337   3.6857
     3.8393   3.9078   4.3262   4.5062   4.5189   5.1195   5.2889   5.2892
     7.2267   7.5316   7.7440   8.0404   8.0427   8.7898   8.8104   9.5536
     9.5537   9.9061  10.0485  10.1806  10.4551  10.7103  10.9433  11.3640
    11.4253  11.7412  11.9591  12.0573  12.1027  12.2648  12.4142  12.8363
    13.1422  13.2629  13.2629  13.3461  13.5554  13.9176  14.5812  14.8641
    15.2579  15.5863  16.1384  16.1970  16.3581  16.5608  17.0443  17.6955
    17.7469  17.8583  18.1280  18.1838  18.5616  18.5881

     occupation numbers 
     0.0156   0.0156   0.0156   0.0156   0.0156   0.0156   0.0156   0.0156
     0.0156   0.0156   0.0156   0.0156   0.0156   0.0156   0.0156   0.0156
     0.0156   0.0156   0.0156   0.0156   0.0156   0.0156   0.0156   0.0156
     0.0000   0.0000   0.0000   0.0000   0.0000   0.0000   0.0000   0.0000
     0.0000   0.0000   0.0000   0.0000   0.0000   0.0000   0.0000   0.0000
     0.0000   0.0000   0.0000   0.0000   0.0000   0.0000   0.0000   0.0000
     0.0000   0.0000   0.0000   0.0000   0.0000   0.0000   0.0000   0.0000
     0.0000   0.0000   0.0000   0.0000   0.0000   0.0000   0.0000   0.0000
     0.0000   0.0000   0.0000   0.0000   0.0000   0.0000

          k = 0.0000-0.2887-0.2041     band energies (ev):

    -4.8247  -4.8246  -4.8019  -4.8018  -2.8295  -2.8291  -0.7337  -0.7335
     1.6539   1.6541   2.1331   2.1331   2.5560   2.5561   4.0201   4.0203
     4.1551   4.1552   4.1552   4.1554   4.3548   4.3549   5.3655   5.3660
     7.1431   7.1432   7.7123   7.7126   8.4502   8.4505   9.1432   9.1432
     9.5185   9.5186   9.7798   9.7800  11.4427  11.4429  11.6647  11.6648
    11.7827  11.7827  11.7828  11.7829  12.1713  12.1713  12.4860  12.4861
    12.7234  12.7235  13.9855  13.9856  14.7086  14.7086  14.8108  14.8108
    15.0254  15.0254  15.0321  15.0322  15.2814  15.2815  17.2561  17.2562
    18.2754  18.2755  18.4920  18.4921  18.9752  18.9753

     occupation numbers 
     0.0156   0.0156   0.0156   0.0156   0.0156   0.0156   0.0156   0.0156
     0.0156   0.0156   0.0156   0.0156   0.0156   0.0156   0.0156   0.0156
     0.0156   0.0156   0.0156   0.0156   0.0156   0.0156   0.0156   0.0156
     0.0000   0.0000   0.0000   0.0000   0.0000   0.0000   0.0000   0.0000
     0.0000   0.0000   0.0000   0.0000   0.0000   0.0000   0.0000   0.0000
     0.0000   0.0000   0.0000   0.0000   0.0000   0.0000   0.0000   0.0000
     0.0000   0.0000   0.0000   0.0000   0.0000   0.0000   0.0000   0.0000
     0.0000   0.0000   0.0000   0.0000   0.0000   0.0000   0.0000   0.0000
     0.0000   0.0000   0.0000   0.0000   0.0000   0.0000

          k = 0.0000-0.2887-0.1021     band energies (ev):

    -5.0837  -5.0727  -4.4000  -4.3644  -3.2093  -3.1584  -0.3137  -0.2348
     1.2037   1.6480   2.0106   2.1266   2.4990   2.9395   3.1337   3.6857
     3.8393   3.9078   4.3262   4.5062   4.5189   5.1195   5.2889   5.2892
     7.2267   7.5316   7.7440   8.0404   8.0427   8.7898   8.8104   9.5536
     9.5537   9.9061  10.0485  10.1806  10.4551  10.7103  10.9433  11.3640
    11.4253  11.7412  11.9591  12.0573  12.1027  12.2648  12.4142  12.8363
    13.1422  13.2629  13.2629  13.3461  13.5554  13.9176  14.5812  14.8641
    15.2579  15.5863  16.1384  16.1970  16.3581  16.5608  17.0443  17.6955
    17.7469  17.8583  18.1280  18.1838  18.5616  18.5881

     occupation numbers 
     0.0156   0.0156   0.0156   0.0156   0.0156   0.0156   0.0156   0.0156
     0.0156   0.0156   0.0156   0.0156   0.0156   0.0156   0.0156   0.0156
     0.0156   0.0156   0.0156   0.0156   0.0156   0.0156   0.0156   0.0156
     0.0000   0.0000   0.0000   0.0000   0.0000   0.0000   0.0000   0.0000
     0.0000   0.0000   0.0000   0.0000   0.0000   0.0000   0.0000   0.0000
     0.0000   0.0000   0.0000   0.0000   0.0000   0.0000   0.0000   0.0000
     0.0000   0.0000   0.0000   0.0000   0.0000   0.0000   0.0000   0.0000
     0.0000   0.0000   0.0000   0.0000   0.0000   0.0000   0.0000   0.0000
     0.0000   0.0000   0.0000   0.0000   0.0000   0.0000

          k = 0.0000-0.1443 0.0000     band energies (ev):

    -5.7030  -4.3288  -4.3245  -4.3243  -3.2231  -2.9089  -0.4865  -0.3991
     0.7718   0.7719   0.7821   2.4688   2.9627   3.3472   3.6391   4.2118
     4.2118   4.3758   4.4594   4.4595   4.6849   5.0973   5.6175   5.8003
     6.8145   7.5540   8.1128   8.2644   8.2646   8.5782   8.6060   8.8718
     9.2062   9.6682   9.6687   9.8165   9.8219  10.4878  10.5090  10.5090
    10.7357  10.8998  11.4746  11.4751  12.7684  12.9311  13.0633  13.6790
    13.7749  14.0198  14.0251  14.3596  14.3612  14.5048  15.2869  15.2871
    15.3752  15.3753  15.5521  15.8247  15.8250  16.7891  16.8227  17.4592
    17.5726  17.6784  17.6902  17.9322  17.9743  18.3730

     occupation numbers 
     0.0156   0.0156   0.0156   0.0156   0.0156   0.0156   0.0156   0.0156
     0.0156   0.0156   0.0156   0.0156   0.0156   0.0156   0.0156   0.0156
     0.0156   0.0156   0.0156   0.0156   0.0156   0.0156   0.0156   0.0156
     0.0000   0.0000   0.0000   0.0000   0.0000   0.0000   0.0000   0.0000
     0.0000   0.0000   0.0000   0.0000   0.0000   0.0000   0.0000   0.0000
     0.0000   0.0000   0.0000   0.0000   0.0000   0.0000   0.0000   0.0000
     0.0000   0.0000   0.0000   0.0000   0.0000   0.0000   0.0000   0.0000
     0.0000   0.0000   0.0000   0.0000   0.0000   0.0000   0.0000   0.0000
     0.0000   0.0000   0.0000   0.0000   0.0000   0.0000

          k = 0.0000-0.1443 0.1021     band energies (ev):

    -5.6118  -4.9065  -4.2719  -3.6978  -3.4875  -2.6644  -0.7150  -0.3359
     0.3078   0.3357   1.7505   2.1102   3.4361   3.4362   3.8742   3.8882
     3.9551   4.4439   4.7245   4.8465   4.9113   5.2418   5.2419   5.4543
     6.6218   7.5453   7.6125   7.8746   8.0415   8.2104   8.8801   9.3852
     9.5620   9.5751   9.7040   9.7458   9.7460   9.8294  10.2666  10.3666
    11.7668  11.8958  12.1982  12.3187  12.5074  12.5547  12.6791  13.4052
    13.9961  14.0395  14.0397  14.0933  14.1349  14.3306  14.8602  14.8638
    15.0366  15.2668  15.5119  15.9568  16.5277  16.5680  16.6345  17.2515
    17.6679  17.6885  17.6886  17.7426  18.1437  18.4892

     occupation numbers 
     0.0156   0.0156   0.0156   0.0156   0.0156   0.0156   0.0156   0.0156
     0.0156   0.0156   0.0156   0.0156   0.0156   0.0156   0.0156   0.0156
     0.0156   0.0156   0.0156   0.0156   0.0156   0.0156   0.0156   0.0156
     0.0000   0.0000   0.0000   0.0000   0.0000   0.0000   0.0000   0.0000
     0.0000   0.0000   0.0000   0.0000   0.0000   0.0000   0.0000   0.0000
     0.0000   0.0000   0.0000   0.0000   0.0000   0.0000   0.0000   0.0000
     0.0000   0.0000   0.0000   0.0000   0.0000   0.0000   0.0000   0.0000
     0.0000   0.0000   0.0000   0.0000   0.0000   0.0000   0.0000   0.0000
     0.0000   0.0000   0.0000   0.0000   0.0000   0.0000

          k = 0.0000-0.1443-0.2041     band energies (ev):

    -5.3439  -5.3417  -4.0597  -3.9288  -3.3573  -2.1407  -1.1483  -0.8374
    -0.0735   0.9703   1.7169   3.3744   3.3759   3.5458   3.6183   3.6699
     3.6710   4.4135   4.5557   4.6732   4.8783   4.9829   4.9891   5.7571
     7.0355   7.2113   7.8157   8.0452   8.2413   8.2847   9.0739   9.1731
     9.3742   9.4678   9.5346   9.5403   9.7830  10.0503  10.1363  10.3139
    10.7474  11.5250  12.4137  12.8106  12.8765  12.9486  13.4902  13.7461
    13.9551  13.9838  14.0680  14.1809  14.1969  14.4308  14.5572  14.8482
    15.0372  15.5969  15.6589  15.6989  16.1401  16.1414  16.1919  17.0200
    17.1253  17.3561  18.2051  18.3205  18.4495  18.4847

     occupation numbers 
     0.0156   0.0156   0.0156   0.0156   0.0156   0.0156   0.0156   0.0156
     0.0156   0.0156   0.0156   0.0156   0.0156   0.0156   0.0156   0.0156
     0.0156   0.0156   0.0156   0.0156   0.0156   0.0156   0.0156   0.0156
     0.0000   0.0000   0.0000   0.0000   0.0000   0.0000   0.0000   0.0000
     0.0000   0.0000   0.0000   0.0000   0.0000   0.0000   0.0000   0.0000
     0.0000   0.0000   0.0000   0.0000   0.0000   0.0000   0.0000   0.0000
     0.0000   0.0000   0.0000   0.0000   0.0000   0.0000   0.0000   0.0000
     0.0000   0.0000   0.0000   0.0000   0.0000   0.0000   0.0000   0.0000
     0.0000   0.0000   0.0000   0.0000   0.0000   0.0000

          k = 0.0000-0.1443-0.1021     band energies (ev):

    -5.6128  -4.9032  -4.2101  -3.7022  -3.7020  -2.2788  -1.0531  -0.3268
    -0.3268   1.1303   2.1220   2.2335   3.4098   3.5196   3.5813   3.5815
     4.0283   4.1751   4.6052   4.6072   4.7819   4.7820   5.3954   5.8389
     6.9720   7.7001   8.2627   8.3796   8.3799   8.5968   8.6120   8.9708
     9.2360   9.6418   9.6420   9.6640   9.7237   9.9174   9.9175  10.5986
    10.8251  10.9652  11.1716  11.6573  12.9690  13.5186  13.8545  13.8547
    14.1203  14.1426  14.1429  14.1720  14.2495  14.4917  14.7893  15.1500
    15.1503  15.8227  15.8309  15.8676  15.9429  15.9842  16.6871  16.8396
    17.1433  17.1433  18.0321  18.2475  18.3622  18.3627

     occupation numbers 
     0.0156   0.0156   0.0156   0.0156   0.0156   0.0156   0.0156   0.0156
     0.0156   0.0156   0.0156   0.0156   0.0156   0.0156   0.0156   0.0156
     0.0156   0.0156   0.0156   0.0156   0.0156   0.0156   0.0156   0.0156
     0.0000   0.0000   0.0000   0.0000   0.0000   0.0000   0.0000   0.0000
     0.0000   0.0000   0.0000   0.0000   0.0000   0.0000   0.0000   0.0000
     0.0000   0.0000   0.0000   0.0000   0.0000   0.0000   0.0000   0.0000
     0.0000   0.0000   0.0000   0.0000   0.0000   0.0000   0.0000   0.0000
     0.0000   0.0000   0.0000   0.0000   0.0000   0.0000   0.0000   0.0000
     0.0000   0.0000   0.0000   0.0000   0.0000   0.0000

          k = 0.1250 0.0000 0.0000     band energies (ev):

    -5.7484  -4.3709  -4.3708  -3.2569  -3.2567  -1.8017  -1.5883  -0.5066
    -0.5062   0.7657   0.7660   2.5009   2.7722   2.7723   3.2990   4.0570
     4.0571   4.0994   4.0995   4.9110   4.9113   5.0062   5.5219   5.9865
     6.8403   7.8599   8.4902   8.4904   8.7536   8.8436   8.8940   8.9893
     8.9895   9.1705   9.1706   9.3527   9.3531  10.2018  10.2018  10.2643
    11.5441  11.5443  12.1202  12.1204  12.5632  12.5632  13.2053  13.6873
    14.1167  14.1167  14.3397  14.4623  14.4624  15.0463  15.3324  15.3326
    15.3859  15.6728  15.7948  15.7949  15.9650  16.1687  16.1690  17.0534
    17.4363  17.4364  17.4629  18.2949  18.8151  18.8153

     occupation numbers 
     0.0156   0.0156   0.0156   0.0156   0.0156   0.0156   0.0156   0.0156
     0.0156   0.0156   0.0156   0.0156   0.0156   0.0156   0.0156   0.0156
     0.0156   0.0156   0.0156   0.0156   0.0156   0.0156   0.0156   0.0156
     0.0000   0.0000   0.0000   0.0000   0.0000   0.0000   0.0000   0.0000
     0.0000   0.0000   0.0000   0.0000   0.0000   0.0000   0.0000   0.0000
     0.0000   0.0000   0.0000   0.0000   0.0000   0.0000   0.0000   0.0000
     0.0000   0.0000   0.0000   0.0000   0.0000   0.0000   0.0000   0.0000
     0.0000   0.0000   0.0000   0.0000   0.0000   0.0000   0.0000   0.0000
     0.0000   0.0000   0.0000   0.0000   0.0000   0.0000

          k = 0.1250 0.0000 0.1021     band energies (ev):

    -5.6575  -4.9494  -3.7443  -3.3685  -3.0451  -2.2668  -1.0628  -0.7568
    -0.3507  -0.3156   2.1279   2.2915   2.5809   2.9835   3.4721   3.4762
     3.9448   4.2848   4.5623   4.6155   4.6790   5.2285   5.3699   5.6610
     7.4136   7.9762   8.3123   8.3592   8.3913   8.5978   8.6294   9.1600
     9.2552   9.3399   9.4300   9.5830  10.0682  10.1784  10.2085  10.2195
    10.5675  10.7196  11.3922  12.7944  13.1651  13.2410  13.2720  13.6440
    13.8687  14.1748  14.5945  14.6320  14.6815  14.7422  14.8031  15.0603
    15.2081  15.6604  15.6688  15.6727  16.4620  16.8968  17.0772  17.1927
    17.4495  17.6913  17.7847  17.8516  18.1852  18.2530

     occupation numbers 
     0.0156   0.0156   0.0156   0.0156   0.0156   0.0156   0.0156   0.0156
     0.0156   0.0156   0.0156   0.0156   0.0156   0.0156   0.0156   0.0156
     0.0156   0.0156   0.0156   0.0156   0.0156   0.0156   0.0156   0.0156
     0.0000   0.0000   0.0000   0.0000   0.0000   0.0000   0.0000   0.0000
     0.0000   0.0000   0.0000   0.0000   0.0000   0.0000   0.0000   0.0000
     0.0000   0.0000   0.0000   0.0000   0.0000   0.0000   0.0000   0.0000
     0.0000   0.0000   0.0000   0.0000   0.0000   0.0000   0.0000   0.0000
     0.0000   0.0000   0.0000   0.0000   0.0000   0.0000   0.0000   0.0000
     0.0000   0.0000   0.0000   0.0000   0.0000   0.0000

          k = 0.1250 0.0000-0.2041     band energies (ev):

    -5.3879  -5.3876  -3.4024  -3.4021  -2.7160  -2.7158  -0.8584  -0.8583
    -0.5177  -0.5174   2.3705   2.3706   2.9788   2.9790   3.5458   3.5461
     3.9135   3.9138   4.5928   4.5929   4.6721   4.6722   5.5326   5.5328
     8.1498   8.1500   8.3115   8.3120   8.5188   8.5190   8.8762   8.8763
     9.2055   9.2056   9.3104   9.3105   9.8689   9.8689  10.0062  10.0065
    11.1482  11.1483  11.9084  11.9086  12.7092  12.7092  13.9892  13.9892
    14.0425  14.0425  14.6307  14.6308  14.8669  14.8672  14.9462  14.9463
    15.4878  15.4879  15.8775  15.8776  16.9486  16.9488  17.1334  17.1335
    17.3894  17.3899  17.6673  17.6673  18.3223  18.3225

     occupation numbers 
     0.0156   0.0156   0.0156   0.0156   0.0156   0.0156   0.0156   0.0156
     0.0156   0.0156   0.0156   0.0156   0.0156   0.0156   0.0156   0.0156
     0.0156   0.0156   0.0156   0.0156   0.0156   0.0156   0.0156   0.0156
     0.0000   0.0000   0.0000   0.0000   0.0000   0.0000   0.0000   0.0000
     0.0000   0.0000   0.0000   0.0000   0.0000   0.0000   0.0000   0.0000
     0.0000   0.0000   0.0000   0.0000   0.0000   0.0000   0.0000   0.0000
     0.0000   0.0000   0.0000   0.0000   0.0000   0.0000   0.0000   0.0000
     0.0000   0.0000   0.0000   0.0000   0.0000   0.0000   0.0000   0.0000
     0.0000   0.0000   0.0000   0.0000   0.0000   0.0000

          k = 0.1250 0.0000-0.1021     band energies (ev):

    -5.6575  -4.9494  -3.7443  -3.3685  -3.0451  -2.2668  -1.0628  -0.7568
    -0.3507  -0.3156   2.1279   2.2915   2.5809   2.9835   3.4720   3.4762
     3.9448   4.2848   4.5623   4.6155   4.6790   5.2285   5.3699   5.6609
     7.4136   7.9762   8.3123   8.3592   8.3913   8.5978   8.6294   9.1599
     9.2552   9.3399   9.4300   9.5830  10.0682  10.1784  10.2085  10.2196
    10.5675  10.7196  11.3922  12.7944  13.1652  13.2410  13.2720  13.6440
    13.8687  14.1747  14.5945  14.6321  14.6815  14.7422  14.8030  15.0603
    15.2081  15.6604  15.6687  15.6727  16.4620  16.8968  17.0772  17.1927
    17.4496  17.6913  17.7847  17.8516  18.1852  18.2530

     occupation numbers 
     0.0156   0.0156   0.0156   0.0156   0.0156   0.0156   0.0156   0.0156
     0.0156   0.0156   0.0156   0.0156   0.0156   0.0156   0.0156   0.0156
     0.0156   0.0156   0.0156   0.0156   0.0156   0.0156   0.0156   0.0156
     0.0000   0.0000   0.0000   0.0000   0.0000   0.0000   0.0000   0.0000
     0.0000   0.0000   0.0000   0.0000   0.0000   0.0000   0.0000   0.0000
     0.0000   0.0000   0.0000   0.0000   0.0000   0.0000   0.0000   0.0000
     0.0000   0.0000   0.0000   0.0000   0.0000   0.0000   0.0000   0.0000
     0.0000   0.0000   0.0000   0.0000   0.0000   0.0000   0.0000   0.0000
     0.0000   0.0000   0.0000   0.0000   0.0000   0.0000

          k = 0.1250 0.1443 0.0000     band energies (ev):

    -5.5676  -4.1981  -4.1979  -4.1921  -3.0848  -2.8232  -0.4890  -0.4446
     0.7878   0.7984   0.7984   2.4052   2.6687   3.1183   3.1962   3.1963
     3.5464   3.8148   4.1033   4.4259   4.8126   4.8126   5.0673   5.8415
     7.4602   8.1550   8.3567   8.7608   8.9402   8.9405   8.9760   9.1943
     9.2541   9.3019   9.3978   9.3980   9.8849  10.7725  10.7729  10.8814
    11.0680  11.1137  11.6434  11.6438  12.0400  12.3254  12.7616  12.9369
    13.6389  13.6389  13.6764  14.0473  14.6782  14.8878  14.9632  15.9806
    15.9993  15.9993  16.0130  16.0454  16.8026  16.9200  17.1459  17.3973
    17.3976  17.9381  17.9929  18.1100  18.1105  18.2266

     occupation numbers 
     0.0156   0.0156   0.0156   0.0156   0.0156   0.0156   0.0156   0.0156
     0.0156   0.0156   0.0156   0.0156   0.0156   0.0156   0.0156   0.0156
     0.0156   0.0156   0.0156   0.0156   0.0156   0.0156   0.0156   0.0156
     0.0000   0.0000   0.0000   0.0000   0.0000   0.0000   0.0000   0.0000
     0.0000   0.0000   0.0000   0.0000   0.0000   0.0000   0.0000   0.0000
     0.0000   0.0000   0.0000   0.0000   0.0000   0.0000   0.0000   0.0000
     0.0000   0.0000   0.0000   0.0000   0.0000   0.0000   0.0000   0.0000
     0.0000   0.0000   0.0000   0.0000   0.0000   0.0000   0.0000   0.0000
     0.0000   0.0000   0.0000   0.0000   0.0000   0.0000

          k = 0.1250 0.1443 0.1021     band energies (ev):

    -5.4765  -4.7742  -4.0904  -3.5649  -3.5647  -2.1904  -1.0672  -0.2897
    -0.2897   1.0378   2.0234   2.3108   2.7733   2.8937   3.3177   3.3178
     3.5168   4.0248   4.1950   4.2691   4.2693   4.9789   5.1737   5.2435
     8.0922   8.0963   8.3784   8.3786   8.5824   8.7224   9.0273   9.3614
     9.6321   9.6323   9.6695   9.9041  10.0152  10.1735  10.5908  10.7558
    10.9334  10.9336  11.0201  12.1594  12.1597  12.1922  12.5851  12.6136
    12.9267  14.0634  14.1071  14.4422  15.2972  15.3423  15.3426  15.5682
    15.7583  16.1615  16.1617  16.4596  16.7743  17.1611  17.3115  17.3116
    17.3453  17.5300  17.7603  18.0858  18.2579  18.3433

     occupation numbers 
     0.0156   0.0156   0.0156   0.0156   0.0156   0.0156   0.0156   0.0156
     0.0156   0.0156   0.0156   0.0156   0.0156   0.0156   0.0156   0.0156
     0.0156   0.0156   0.0156   0.0156   0.0156   0.0156   0.0156   0.0156
     0.0000   0.0000   0.0000   0.0000   0.0000   0.0000   0.0000   0.0000
     0.0000   0.0000   0.0000   0.0000   0.0000   0.0000   0.0000   0.0000
     0.0000   0.0000   0.0000   0.0000   0.0000   0.0000   0.0000   0.0000
     0.0000   0.0000   0.0000   0.0000   0.0000   0.0000   0.0000   0.0000
     0.0000   0.0000   0.0000   0.0000   0.0000   0.0000   0.0000   0.0000
     0.0000   0.0000   0.0000   0.0000   0.0000   0.0000

          k = 0.1250 0.1443-0.2041     band energies (ev):

    -5.2100  -5.2071  -3.9248  -3.8182  -3.2227  -1.9964  -1.2163  -0.7837
    -0.0163   0.7762   1.8333   2.9437   3.0128   3.0194   3.1612   3.2636
     3.6605   4.0626   4.2863   4.2989   4.3941   4.5109   4.9751   5.4387
     7.6927   7.9569   8.2663   8.3331   8.4784   8.6524   8.8178   9.3607
     9.4514   9.4557   9.9575  10.0950  10.2260  10.2575  10.6013  10.6177
    10.8246  11.1400  11.6207  12.1767  12.4290  12.4424  12.8150  13.0937
    13.1362  13.6453  14.2606  14.3602  14.4223  14.9918  15.2762  15.6061
    15.8734  15.8925  15.9682  16.0646  16.2651  16.8150  17.2592  17.2873
    17.3430  17.4740  17.6526  18.2163  18.2278  18.4751

     occupation numbers 
     0.0156   0.0156   0.0156   0.0156   0.0156   0.0156   0.0156   0.0156
     0.0156   0.0156   0.0156   0.0156   0.0156   0.0156   0.0156   0.0156
     0.0156   0.0156   0.0156   0.0156   0.0156   0.0156   0.0156   0.0156
     0.0000   0.0000   0.0000   0.0000   0.0000   0.0000   0.0000   0.0000
     0.0000   0.0000   0.0000   0.0000   0.0000   0.0000   0.0000   0.0000
     0.0000   0.0000   0.0000   0.0000   0.0000   0.0000   0.0000   0.0000
     0.0000   0.0000   0.0000   0.0000   0.0000   0.0000   0.0000   0.0000
     0.0000   0.0000   0.0000   0.0000   0.0000   0.0000   0.0000   0.0000
     0.0000   0.0000   0.0000   0.0000   0.0000   0.0000

          k = 0.1250 0.1443-0.1021     band energies (ev):

    -5.4779  -4.7697  -4.1405  -3.5709  -3.3887  -2.5259  -0.7655  -0.2776
     0.2061   0.3664   1.8244   2.0597   2.8819   3.1053   3.3175   3.5400
     3.6519   3.7494   3.8691   4.4961   4.7152   4.9815   5.2680   5.5036
     7.0774   8.2333   8.3269   8.4922   8.5181   8.6840   8.7111   9.0439
     9.3853   9.5563   9.6948   9.9414   9.9551  10.4259  10.5525  10.7911
    11.0509  11.2733  11.9423  12.3305  12.7839  12.8465  12.9518  13.1477
    13.2645  13.6315  13.6847  13.8841  13.9193  14.7854  15.1210  15.1338
    15.3338  15.3357  16.0102  16.4340  16.7757  17.0904  17.1535  17.1974
    17.3226  17.7140  18.0495  18.1124  18.1302  18.6745

     occupation numbers 
     0.0156   0.0156   0.0156   0.0156   0.0156   0.0156   0.0156   0.0156
     0.0156   0.0156   0.0156   0.0156   0.0156   0.0156   0.0156   0.0156
     0.0156   0.0156   0.0156   0.0156   0.0156   0.0156   0.0156   0.0156
     0.0000   0.0000   0.0000   0.0000   0.0000   0.0000   0.0000   0.0000
     0.0000   0.0000   0.0000   0.0000   0.0000   0.0000   0.0000   0.0000
     0.0000   0.0000   0.0000   0.0000   0.0000   0.0000   0.0000   0.0000
     0.0000   0.0000   0.0000   0.0000   0.0000   0.0000   0.0000   0.0000
     0.0000   0.0000   0.0000   0.0000   0.0000   0.0000   0.0000   0.0000
     0.0000   0.0000   0.0000   0.0000   0.0000   0.0000

          k = 0.1250-0.2887 0.0000     band energies (ev):

    -5.0356  -5.0353  -3.6973  -3.6972  -3.6742  -3.6741   0.5146   0.5147
     0.5373   0.5373   2.3804   2.3804   2.5246   2.5247   2.6607   2.6609
     3.7133   3.7136   3.8910   3.8912   4.0607   4.0608   5.5241   5.5242
     8.3956   8.3959   9.0431   9.0431   9.3558   9.3561   9.3697   9.3698
     9.4720   9.4720   9.5456   9.5456   9.8798   9.8798  10.3638  10.3638
    10.6981  10.6982  11.5707  11.5708  12.3668  12.3670  12.5781  12.5782
    13.0207  13.0209  14.3599  14.3600  14.9629  14.9631  15.2886  15.2887
    15.7525  15.7525  16.1005  16.1006  16.3487  16.3488  17.4179  17.4179
    18.4359  18.4361  18.7846  18.7847  18.9070  18.9071

     occupation numbers 
     0.0156   0.0156   0.0156   0.0156   0.0156   0.0156   0.0156   0.0156
     0.0156   0.0156   0.0156   0.0156   0.0156   0.0156   0.0156   0.0156
     0.0156   0.0156   0.0156   0.0156   0.0156   0.0156   0.0156   0.0156
     0.0000   0.0000   0.0000   0.0000   0.0000   0.0000   0.0000   0.0000
     0.0000   0.0000   0.0000   0.0000   0.0000   0.0000   0.0000   0.0000
     0.0000   0.0000   0.0000   0.0000   0.0000   0.0000   0.0000   0.0000
     0.0000   0.0000   0.0000   0.0000   0.0000   0.0000   0.0000   0.0000
     0.0000   0.0000   0.0000   0.0000   0.0000   0.0000   0.0000   0.0000
     0.0000   0.0000   0.0000   0.0000   0.0000   0.0000

          k = 0.1250-0.2887 0.1021     band energies (ev):

    -4.9493  -4.9441  -4.2628  -4.2460  -3.0700  -3.0453  -0.3154  -0.2811
     1.1595   1.3603   2.0733   2.1281   2.2914   2.4745   3.1621   3.2644
     3.4763   3.6912   3.9081   4.0565   4.2847   4.4443   4.9920   5.2284
     7.8822   8.3775   8.5869   8.5978   8.6290   9.1224   9.2841   9.3399
     9.7724   9.7851   9.9296  10.2088  10.2194  10.3362  10.5673  10.7199
    10.8011  11.0163  11.3249  11.3922  11.6021  12.3082  13.0116  13.1656
    13.2406  13.4022  13.9985  14.2490  14.6315  14.8032  14.8315  15.0263
    15.3013  15.6687  16.4081  16.4620  16.5942  16.6205  17.0342  17.3141
    17.6966  17.8520  18.2528  18.3817  18.6759  18.8298

     occupation numbers 
     0.0156   0.0156   0.0156   0.0156   0.0156   0.0156   0.0156   0.0156
     0.0156   0.0156   0.0156   0.0156   0.0156   0.0156   0.0156   0.0156
     0.0156   0.0156   0.0156   0.0156   0.0156   0.0156   0.0156   0.0156
     0.0000   0.0000   0.0000   0.0000   0.0000   0.0000   0.0000   0.0000
     0.0000   0.0000   0.0000   0.0000   0.0000   0.0000   0.0000   0.0000
     0.0000   0.0000   0.0000   0.0000   0.0000   0.0000   0.0000   0.0000
     0.0000   0.0000   0.0000   0.0000   0.0000   0.0000   0.0000   0.0000
     0.0000   0.0000   0.0000   0.0000   0.0000   0.0000   0.0000   0.0000
     0.0000   0.0000   0.0000   0.0000   0.0000   0.0000

          k = 0.1250-0.2887-0.2041     band energies (ev):

    -4.6885  -4.6884  -4.6778  -4.6777  -2.6977  -2.6973  -0.7448  -0.7447
     1.6530   1.6532   2.0067   2.0068   2.0875   2.0876   3.4724   3.4726
     4.0346   4.0347   4.2382   4.2384   4.2494   4.2495   4.5757   4.5760
     7.7408   7.7409   8.2459   8.2460   8.7985   8.7987   9.6646   9.6647
     9.8504   9.8506   9.9840   9.9842  10.7120  10.7122  10.7977  10.7979
    10.9290  10.9290  11.3823  11.3824  12.1666  12.1667  12.9165  12.9165
    13.1498  13.1499  14.5147  14.5148  14.7250  14.7251  15.0745  15.0746
    15.0798  15.0800  15.8757  15.8759  16.6821  16.6821  16.7467  16.7468
    18.1513  18.1514  18.5144  18.5145  18.5489  18.5490

     occupation numbers 
     0.0156   0.0156   0.0156   0.0156   0.0156   0.0156   0.0156   0.0156
     0.0156   0.0156   0.0156   0.0156   0.0156   0.0156   0.0156   0.0156
     0.0156   0.0156   0.0156   0.0156   0.0156   0.0156   0.0156   0.0156
     0.0000   0.0000   0.0000   0.0000   0.0000   0.0000   0.0000   0.0000
     0.0000   0.0000   0.0000   0.0000   0.0000   0.0000   0.0000   0.0000
     0.0000   0.0000   0.0000   0.0000   0.0000   0.0000   0.0000   0.0000
     0.0000   0.0000   0.0000   0.0000   0.0000   0.0000   0.0000   0.0000
     0.0000   0.0000   0.0000   0.0000   0.0000   0.0000   0.0000   0.0000
     0.0000   0.0000   0.0000   0.0000   0.0000   0.0000

          k = 0.1250-0.2887-0.1021     band energies (ev):

    -4.9493  -4.9441  -4.2628  -4.2459  -3.0700  -3.0453  -0.3154  -0.2811
     1.1595   1.3603   2.0733   2.1280   2.2914   2.4746   3.1621   3.2644
     3.4762   3.6912   3.9081   4.0565   4.2847   4.4443   4.9920   5.2284
     7.8822   8.3775   8.5869   8.5978   8.6290   9.1224   9.2841   9.3399
     9.7724   9.7851   9.9296  10.2088  10.2194  10.3362  10.5673  10.7199
    10.8011  11.0163  11.3249  11.3922  11.6021  12.3082  13.0116  13.1656
    13.2406  13.4022  13.9985  14.2490  14.6315  14.8032  14.8315  15.0263
    15.3014  15.6687  16.4081  16.4619  16.5942  16.6204  17.0342  17.3141
    17.6966  17.8520  18.2528  18.3817  18.6760  18.8298

     occupation numbers 
     0.0156   0.0156   0.0156   0.0156   0.0156   0.0156   0.0156   0.0156
     0.0156   0.0156   0.0156   0.0156   0.0156   0.0156   0.0156   0.0156
     0.0156   0.0156   0.0156   0.0156   0.0156   0.0156   0.0156   0.0156
     0.0000   0.0000   0.0000   0.0000   0.0000   0.0000   0.0000   0.0000
     0.0000   0.0000   0.0000   0.0000   0.0000   0.0000   0.0000   0.0000
     0.0000   0.0000   0.0000   0.0000   0.0000   0.0000   0.0000   0.0000
     0.0000   0.0000   0.0000   0.0000   0.0000   0.0000   0.0000   0.0000
     0.0000   0.0000   0.0000   0.0000   0.0000   0.0000   0.0000   0.0000
     0.0000   0.0000   0.0000   0.0000   0.0000   0.0000

          k = 0.1250-0.1443 0.0000     band energies (ev):

    -5.5676  -4.1981  -4.1979  -4.1921  -3.0848  -2.8232  -0.4890  -0.4446
     0.7878   0.7984   0.7984   2.4052   2.6687   3.1183   3.1963   3.1963
     3.5464   3.8148   4.1033   4.4259   4.8125   4.8126   5.0673   5.8415
     7.4602   8.1550   8.3567   8.7608   8.9402   8.9405   8.9761   9.1943
     9.2541   9.3019   9.3978   9.3980   9.8849  10.7725  10.7728  10.8814
    11.0680  11.1137  11.6434  11.6438  12.0400  12.3254  12.7616  12.9369
    13.6389  13.6389  13.6764  14.0473  14.6782  14.8878  14.9632  15.9806
    15.9993  15.9993  16.0130  16.0454  16.8026  16.9200  17.1459  17.3972
    17.3976  17.9381  17.9929  18.1100  18.1105  18.2266

     occupation numbers 
     0.0156   0.0156   0.0156   0.0156   0.0156   0.0156   0.0156   0.0156
     0.0156   0.0156   0.0156   0.0156   0.0156   0.0156   0.0156   0.0156
     0.0156   0.0156   0.0156   0.0156   0.0156   0.0156   0.0156   0.0156
     0.0000   0.0000   0.0000   0.0000   0.0000   0.0000   0.0000   0.0000
     0.0000   0.0000   0.0000   0.0000   0.0000   0.0000   0.0000   0.0000
     0.0000   0.0000   0.0000   0.0000   0.0000   0.0000   0.0000   0.0000
     0.0000   0.0000   0.0000   0.0000   0.0000   0.0000   0.0000   0.0000
     0.0000   0.0000   0.0000   0.0000   0.0000   0.0000   0.0000   0.0000
     0.0000   0.0000   0.0000   0.0000   0.0000   0.0000

          k = 0.1250-0.1443 0.1021     band energies (ev):

    -5.4779  -4.7697  -4.1405  -3.5709  -3.3887  -2.5259  -0.7655  -0.2776
     0.2062   0.3664   1.8244   2.0597   2.8819   3.1053   3.3175   3.5400
     3.6519   3.7494   3.8691   4.4962   4.7152   4.9815   5.2680   5.5037
     7.0774   8.2333   8.3269   8.4922   8.5181   8.6840   8.7111   9.0439
     9.3854   9.5563   9.6948   9.9414   9.9551  10.4259  10.5525  10.7911
    11.0508  11.2733  11.9423  12.3305  12.7839  12.8465  12.9517  13.1477
    13.2645  13.6315  13.6847  13.8841  13.9193  14.7854  15.1210  15.1338
    15.3338  15.3357  16.0102  16.4340  16.7757  17.0904  17.1535  17.1974
    17.3226  17.7141  18.0495  18.1124  18.1303  18.6745

     occupation numbers 
     0.0156   0.0156   0.0156   0.0156   0.0156   0.0156   0.0156   0.0156
     0.0156   0.0156   0.0156   0.0156   0.0156   0.0156   0.0156   0.0156
     0.0156   0.0156   0.0156   0.0156   0.0156   0.0156   0.0156   0.0156
     0.0000   0.0000   0.0000   0.0000   0.0000   0.0000   0.0000   0.0000
     0.0000   0.0000   0.0000   0.0000   0.0000   0.0000   0.0000   0.0000
     0.0000   0.0000   0.0000   0.0000   0.0000   0.0000   0.0000   0.0000
     0.0000   0.0000   0.0000   0.0000   0.0000   0.0000   0.0000   0.0000
     0.0000   0.0000   0.0000   0.0000   0.0000   0.0000   0.0000   0.0000
     0.0000   0.0000   0.0000   0.0000   0.0000   0.0000

          k = 0.1250-0.1443-0.2041     band energies (ev):

    -5.2100  -5.2071  -3.9248  -3.8182  -3.2227  -1.9964  -1.2163  -0.7837
    -0.0163   0.7762   1.8333   2.9437   3.0128   3.0194   3.1612   3.2636
     3.6605   4.0626   4.2864   4.2989   4.3941   4.5109   4.9751   5.4387
     7.6927   7.9569   8.2664   8.3331   8.4784   8.6524   8.8178   9.3607
     9.4514   9.4557   9.9575  10.0950  10.2260  10.2575  10.6013  10.6177
    10.8246  11.1400  11.6207  12.1767  12.4290  12.4424  12.8150  13.0937
    13.1362  13.6453  14.2606  14.3602  14.4223  14.9918  15.2762  15.6061
    15.8734  15.8925  15.9683  16.0646  16.2651  16.8150  17.2592  17.2873
[...]
    13.8687  14.1748  14.5945  14.6320  14.6815  14.7422  14.8031  15.0603
    15.2081  15.6604  15.6688  15.6727  16.4620  16.8968  17.0772  17.1927
    17.4495  17.6913  17.7847  17.8516  18.1852  18.2530

     occupation numbers 
     0.0156   0.0156   0.0156   0.0156   0.0156   0.0156   0.0156   0.0156
     0.0156   0.0156   0.0156   0.0156   0.0156   0.0156   0.0156   0.0156
     0.0156   0.0156   0.0156   0.0156   0.0156   0.0156   0.0156   0.0156
     0.0000   0.0000   0.0000   0.0000   0.0000   0.0000   0.0000   0.0000
     0.0000   0.0000   0.0000   0.0000   0.0000   0.0000   0.0000   0.0000
     0.0000   0.0000   0.0000   0.0000   0.0000   0.0000   0.0000   0.0000
     0.0000   0.0000   0.0000   0.0000   0.0000   0.0000   0.0000   0.0000
     0.0000   0.0000   0.0000   0.0000   0.0000   0.0000   0.0000   0.0000
     0.0000   0.0000   0.0000   0.0000   0.0000   0.0000

          k =-0.1250 0.1443 0.0000     band energies (ev):

    -5.5676  -4.1981  -4.1979  -4.1921  -3.0848  -2.8232  -0.4890  -0.4446
     0.7878   0.7984   0.7984   2.4052   2.6687   3.1183   3.1963   3.1963
     3.5464   3.8148   4.1033   4.4259   4.8125   4.8126   5.0673   5.8415
     7.4602   8.1550   8.3567   8.7608   8.9402   8.9405   8.9761   9.1943
     9.2541   9.3019   9.3978   9.3980   9.8849  10.7725  10.7728  10.8814
    11.0680  11.1137  11.6434  11.6438  12.0400  12.3254  12.7616  12.9369
    13.6389  13.6389  13.6764  14.0473  14.6782  14.8878  14.9632  15.9806
    15.9993  15.9993  16.0130  16.0454  16.8026  16.9200  17.1459  17.3972
    17.3976  17.9381  17.9929  18.1100  18.1105  18.2266

     occupation numbers 
     0.0156   0.0156   0.0156   0.0156   0.0156   0.0156   0.0156   0.0156
     0.0156   0.0156   0.0156   0.0156   0.0156   0.0156   0.0156   0.0156
     0.0156   0.0156   0.0156   0.0156   0.0156   0.0156   0.0156   0.0156
     0.0000   0.0000   0.0000   0.0000   0.0000   0.0000   0.0000   0.0000
     0.0000   0.0000   0.0000   0.0000   0.0000   0.0000   0.0000   0.0000
     0.0000   0.0000   0.0000   0.0000   0.0000   0.0000   0.0000   0.0000
     0.0000   0.0000   0.0000   0.0000   0.0000   0.0000   0.0000   0.0000
     0.0000   0.0000   0.0000   0.0000   0.0000   0.0000   0.0000   0.0000
     0.0000   0.0000   0.0000   0.0000   0.0000   0.0000

          k =-0.1250 0.1443 0.1021     band energies (ev):

    -5.4765  -4.7742  -4.0904  -3.5649  -3.5647  -2.1904  -1.0671  -0.2897
    -0.2897   1.0378   2.0234   2.3108   2.7733   2.8937   3.3177   3.3178
     3.5168   4.0248   4.1950   4.2691   4.2693   4.9789   5.1737   5.2436
     8.0922   8.0963   8.3784   8.3786   8.5824   8.7224   9.0272   9.3614
     9.6321   9.6323   9.6695   9.9041  10.0152  10.1735  10.5908  10.7558
    10.9334  10.9336  11.0201  12.1594  12.1597  12.1922  12.5851  12.6136
    12.9267  14.0634  14.1071  14.4422  15.2972  15.3423  15.3426  15.5682
    15.7583  16.1615  16.1617  16.4596  16.7743  17.1611  17.3115  17.3116
    17.3453  17.5300  17.7603  18.0858  18.2579  18.3433

     occupation numbers 
     0.0156   0.0156   0.0156   0.0156   0.0156   0.0156   0.0156   0.0156
     0.0156   0.0156   0.0156   0.0156   0.0156   0.0156   0.0156   0.0156
     0.0156   0.0156   0.0156   0.0156   0.0156   0.0156   0.0156   0.0156
     0.0000   0.0000   0.0000   0.0000   0.0000   0.0000   0.0000   0.0000
     0.0000   0.0000   0.0000   0.0000   0.0000   0.0000   0.0000   0.0000
     0.0000   0.0000   0.0000   0.0000   0.0000   0.0000   0.0000   0.0000
     0.0000   0.0000   0.0000   0.0000   0.0000   0.0000   0.0000   0.0000
     0.0000   0.0000   0.0000   0.0000   0.0000   0.0000   0.0000   0.0000
     0.0000   0.0000   0.0000   0.0000   0.0000   0.0000

          k =-0.1250 0.1443-0.2041     band energies (ev):

    -5.2100  -5.2071  -3.9248  -3.8182  -3.2227  -1.9964  -1.2163  -0.7837
    -0.0163   0.7762   1.8333   2.9437   3.0128   3.0194   3.1612   3.2636
     3.6605   4.0626   4.2864   4.2989   4.3941   4.5109   4.9751   5.4387
     7.6927   7.9569   8.2664   8.3331   8.4784   8.6524   8.8178   9.3607
     9.4514   9.4557   9.9575  10.0950  10.2260  10.2575  10.6013  10.6177
    10.8246  11.1400  11.6207  12.1767  12.4290  12.4424  12.8150  13.0937
    13.1362  13.6453  14.2606  14.3602  14.4223  14.9918  15.2762  15.6061
    15.8734  15.8925  15.9683  16.0646  16.2651  16.8150  17.2592  17.2873
    17.3430  17.4740  17.6526  18.2163  18.2278  18.4751

     occupation numbers 
     0.0156   0.0156   0.0156   0.0156   0.0156   0.0156   0.0156   0.0156
     0.0156   0.0156   0.0156   0.0156   0.0156   0.0156   0.0156   0.0156
     0.0156   0.0156   0.0156   0.0156   0.0156   0.0156   0.0156   0.0156
     0.0000   0.0000   0.0000   0.0000   0.0000   0.0000   0.0000   0.0000
     0.0000   0.0000   0.0000   0.0000   0.0000   0.0000   0.0000   0.0000
     0.0000   0.0000   0.0000   0.0000   0.0000   0.0000   0.0000   0.0000
     0.0000   0.0000   0.0000   0.0000   0.0000   0.0000   0.0000   0.0000
     0.0000   0.0000   0.0000   0.0000   0.0000   0.0000   0.0000   0.0000
     0.0000   0.0000   0.0000   0.0000   0.0000   0.0000

          k =-0.1250 0.1443-0.1021     band energies (ev):

    -5.4779  -4.7697  -4.1405  -3.5709  -3.3887  -2.5259  -0.7655  -0.2776
     0.2062   0.3664   1.8244   2.0597   2.8819   3.1053   3.3175   3.5400
     3.6519   3.7494   3.8691   4.4962   4.7152   4.9815   5.2680   5.5037
     7.0774   8.2333   8.3269   8.4922   8.5181   8.6840   8.7111   9.0439
     9.3854   9.5563   9.6948   9.9414   9.9551  10.4259  10.5525  10.7911
    11.0508  11.2733  11.9423  12.3305  12.7839  12.8465  12.9517  13.1477
    13.2645  13.6315  13.6847  13.8841  13.9193  14.7854  15.1210  15.1338
    15.3338  15.3357  16.0102  16.4340  16.7757  17.0904  17.1535  17.1974
    17.3226  17.7141  18.0495  18.1124  18.1303  18.6745

     occupation numbers 
     0.0156   0.0156   0.0156   0.0156   0.0156   0.0156   0.0156   0.0156
     0.0156   0.0156   0.0156   0.0156   0.0156   0.0156   0.0156   0.0156
     0.0156   0.0156   0.0156   0.0156   0.0156   0.0156   0.0156   0.0156
     0.0000   0.0000   0.0000   0.0000   0.0000   0.0000   0.0000   0.0000
     0.0000   0.0000   0.0000   0.0000   0.0000   0.0000   0.0000   0.0000
     0.0000   0.0000   0.0000   0.0000   0.0000   0.0000   0.0000   0.0000
     0.0000   0.0000   0.0000   0.0000   0.0000   0.0000   0.0000   0.0000
     0.0000   0.0000   0.0000   0.0000   0.0000   0.0000   0.0000   0.0000
     0.0000   0.0000   0.0000   0.0000   0.0000   0.0000

          k =-0.1250-0.2887 0.0000     band energies (ev):

    -5.0356  -5.0353  -3.6973  -3.6972  -3.6742  -3.6741   0.5146   0.5147
     0.5373   0.5373   2.3804   2.3804   2.5246   2.5247   2.6607   2.6609
     3.7133   3.7136   3.8910   3.8912   4.0607   4.0608   5.5241   5.5242
     8.3956   8.3959   9.0431   9.0431   9.3558   9.3561   9.3697   9.3698
     9.4720   9.4720   9.5456   9.5456   9.8798   9.8798  10.3638  10.3638
    10.6981  10.6982  11.5707  11.5708  12.3668  12.3670  12.5781  12.5782
    13.0207  13.0209  14.3599  14.3600  14.9629  14.9631  15.2886  15.2887
    15.7525  15.7525  16.1005  16.1006  16.3487  16.3488  17.4179  17.4179
    18.4359  18.4361  18.7846  18.7847  18.9070  18.9071

     occupation numbers 
     0.0156   0.0156   0.0156   0.0156   0.0156   0.0156   0.0156   0.0156
     0.0156   0.0156   0.0156   0.0156   0.0156   0.0156   0.0156   0.0156
     0.0156   0.0156   0.0156   0.0156   0.0156   0.0156   0.0156   0.0156
     0.0000   0.0000   0.0000   0.0000   0.0000   0.0000   0.0000   0.0000
     0.0000   0.0000   0.0000   0.0000   0.0000   0.0000   0.0000   0.0000
     0.0000   0.0000   0.0000   0.0000   0.0000   0.0000   0.0000   0.0000
     0.0000   0.0000   0.0000   0.0000   0.0000   0.0000   0.0000   0.0000
     0.0000   0.0000   0.0000   0.0000   0.0000   0.0000   0.0000   0.0000
     0.0000   0.0000   0.0000   0.0000   0.0000   0.0000

          k =-0.1250-0.2887 0.1021     band energies (ev):

    -4.9493  -4.9441  -4.2628  -4.2459  -3.0700  -3.0453  -0.3154  -0.2811
     1.1595   1.3603   2.0733   2.1280   2.2914   2.4746   3.1621   3.2644
     3.4762   3.6912   3.9081   4.0565   4.2847   4.4443   4.9920   5.2284
     7.8822   8.3775   8.5869   8.5978   8.6290   9.1224   9.2841   9.3399
     9.7724   9.7851   9.9296  10.2088  10.2194  10.3362  10.5673  10.7199
    10.8011  11.0163  11.3249  11.3922  11.6021  12.3082  13.0116  13.1656
    13.2406  13.4022  13.9985  14.2490  14.6315  14.8032  14.8315  15.0263
    15.3014  15.6687  16.4081  16.4619  16.5942  16.6204  17.0342  17.3141
    17.6966  17.8520  18.2528  18.3817  18.6760  18.8298

     occupation numbers 
     0.0156   0.0156   0.0156   0.0156   0.0156   0.0156   0.0156   0.0156
     0.0156   0.0156   0.0156   0.0156   0.0156   0.0156   0.0156   0.0156
     0.0156   0.0156   0.0156   0.0156   0.0156   0.0156   0.0156   0.0156
     0.0000   0.0000   0.0000   0.0000   0.0000   0.0000   0.0000   0.0000
     0.0000   0.0000   0.0000   0.0000   0.0000   0.0000   0.0000   0.0000
     0.0000   0.0000   0.0000   0.0000   0.0000   0.0000   0.0000   0.0000
     0.0000   0.0000   0.0000   0.0000   0.0000   0.0000   0.0000   0.0000
     0.0000   0.0000   0.0000   0.0000   0.0000   0.0000   0.0000   0.0000
     0.0000   0.0000   0.0000   0.0000   0.0000   0.0000

          k =-0.1250-0.2887-0.2041     band energies (ev):

    -4.6885  -4.6884  -4.6778  -4.6777  -2.6977  -2.6973  -0.7448  -0.7447
     1.6530   1.6532   2.0067   2.0068   2.0875   2.0876   3.4724   3.4726
     4.0346   4.0347   4.2382   4.2384   4.2494   4.2495   4.5757   4.5760
     7.7408   7.7409   8.2459   8.2460   8.7985   8.7987   9.6646   9.6647
     9.8504   9.8506   9.9840   9.9842  10.7120  10.7122  10.7977  10.7979
    10.9290  10.9290  11.3823  11.3824  12.1666  12.1667  12.9165  12.9165
    13.1498  13.1499  14.5147  14.5148  14.7250  14.7251  15.0745  15.0746
    15.0798  15.0800  15.8757  15.8759  16.6821  16.6821  16.7467  16.7468
    18.1513  18.1514  18.5144  18.5145  18.5489  18.5490

     occupation numbers 
     0.0156   0.0156   0.0156   0.0156   0.0156   0.0156   0.0156   0.0156
     0.0156   0.0156   0.0156   0.0156   0.0156   0.0156   0.0156   0.0156
     0.0156   0.0156   0.0156   0.0156   0.0156   0.0156   0.0156   0.0156
     0.0000   0.0000   0.0000   0.0000   0.0000   0.0000   0.0000   0.0000
     0.0000   0.0000   0.0000   0.0000   0.0000   0.0000   0.0000   0.0000
     0.0000   0.0000   0.0000   0.0000   0.0000   0.0000   0.0000   0.0000
     0.0000   0.0000   0.0000   0.0000   0.0000   0.0000   0.0000   0.0000
     0.0000   0.0000   0.0000   0.0000   0.0000   0.0000   0.0000   0.0000
     0.0000   0.0000   0.0000   0.0000   0.0000   0.0000

          k =-0.1250-0.2887-0.1021     band energies (ev):

    -4.9493  -4.9441  -4.2628  -4.2460  -3.0700  -3.0453  -0.3154  -0.2811
     1.1595   1.3603   2.0733   2.1281   2.2914   2.4745   3.1621   3.2644
     3.4763   3.6912   3.9081   4.0565   4.2847   4.4443   4.9920   5.2284
     7.8822   8.3775   8.5869   8.5978   8.6290   9.1224   9.2841   9.3399
     9.7724   9.7851   9.9296  10.2088  10.2194  10.3362  10.5673  10.7199
    10.8011  11.0163  11.3249  11.3922  11.6021  12.3082  13.0116  13.1656
    13.2406  13.4022  13.9985  14.2490  14.6315  14.8032  14.8315  15.0263
    15.3013  15.6687  16.4081  16.4620  16.5942  16.6205  17.0342  17.3141
    17.6966  17.8520  18.2528  18.3817  18.6759  18.8298

     occupation numbers 
     0.0156   0.0156   0.0156   0.0156   0.0156   0.0156   0.0156   0.0156
     0.0156   0.0156   0.0156   0.0156   0.0156   0.0156   0.0156   0.0156
     0.0156   0.0156   0.0156   0.0156   0.0156   0.0156   0.0156   0.0156
     0.0000   0.0000   0.0000   0.0000   0.0000   0.0000   0.0000   0.0000
     0.0000   0.0000   0.0000   0.0000   0.0000   0.0000   0.0000   0.0000
     0.0000   0.0000   0.0000   0.0000   0.0000   0.0000   0.0000   0.0000
     0.0000   0.0000   0.0000   0.0000   0.0000   0.0000   0.0000   0.0000
     0.0000   0.0000   0.0000   0.0000   0.0000   0.0000   0.0000   0.0000
     0.0000   0.0000   0.0000   0.0000   0.0000   0.0000

          k =-0.1250-0.1443 0.0000     band energies (ev):

    -5.5676  -4.1981  -4.1979  -4.1921  -3.0848  -2.8232  -0.4890  -0.4446
     0.7878   0.7984   0.7984   2.4052   2.6687   3.1183   3.1962   3.1963
     3.5464   3.8148   4.1033   4.4259   4.8126   4.8126   5.0673   5.8415
     7.4602   8.1550   8.3567   8.7608   8.9402   8.9405   8.9760   9.1943
     9.2541   9.3019   9.3978   9.3980   9.8849  10.7725  10.7729  10.8814
    11.0680  11.1137  11.6434  11.6438  12.0400  12.3254  12.7616  12.9369
    13.6389  13.6389  13.6764  14.0473  14.6782  14.8878  14.9632  15.9806
    15.9993  15.9993  16.0130  16.0454  16.8026  16.9200  17.1459  17.3973
    17.3976  17.9381  17.9929  18.1100  18.1105  18.2266

     occupation numbers 
     0.0156   0.0156   0.0156   0.0156   0.0156   0.0156   0.0156   0.0156
     0.0156   0.0156   0.0156   0.0156   0.0156   0.0156   0.0156   0.0156
     0.0156   0.0156   0.0156   0.0156   0.0156   0.0156   0.0156   0.0156
     0.0000   0.0000   0.0000   0.0000   0.0000   0.0000   0.0000   0.0000
     0.0000   0.0000   0.0000   0.0000   0.0000   0.0000   0.0000   0.0000
     0.0000   0.0000   0.0000   0.0000   0.0000   0.0000   0.0000   0.0000
     0.0000   0.0000   0.0000   0.0000   0.0000   0.0000   0.0000   0.0000
     0.0000   0.0000   0.0000   0.0000   0.0000   0.0000   0.0000   0.0000
     0.0000   0.0000   0.0000   0.0000   0.0000   0.0000

          k =-0.1250-0.1443 0.1021     band energies (ev):

    -5.4779  -4.7697  -4.1405  -3.5709  -3.3887  -2.5259  -0.7655  -0.2776
     0.2061   0.3664   1.8244   2.0597   2.8819   3.1053   3.3175   3.5400
     3.6519   3.7494   3.8691   4.4961   4.7152   4.9815   5.2680   5.5036
     7.0774   8.2333   8.3269   8.4922   8.5181   8.6840   8.7111   9.0439
     9.3853   9.5563   9.6948   9.9414   9.9551  10.4259  10.5525  10.7911
    11.0509  11.2733  11.9423  12.3305  12.7839  12.8465  12.9518  13.1477
    13.2645  13.6315  13.6847  13.8841  13.9193  14.7854  15.1210  15.1338
    15.3338  15.3357  16.0102  16.4340  16.7757  17.0904  17.1535  17.1974
    17.3226  17.7140  18.0495  18.1124  18.1302  18.6745

     occupation numbers 
     0.0156   0.0156   0.0156   0.0156   0.0156   0.0156   0.0156   0.0156
     0.0156   0.0156   0.0156   0.0156   0.0156   0.0156   0.0156   0.0156
     0.0156   0.0156   0.0156   0.0156   0.0156   0.0156   0.0156   0.0156
     0.0000   0.0000   0.0000   0.0000   0.0000   0.0000   0.0000   0.0000
     0.0000   0.0000   0.0000   0.0000   0.0000   0.0000   0.0000   0.0000
     0.0000   0.0000   0.0000   0.0000   0.0000   0.0000   0.0000   0.0000
     0.0000   0.0000   0.0000   0.0000   0.0000   0.0000   0.0000   0.0000
     0.0000   0.0000   0.0000   0.0000   0.0000   0.0000   0.0000   0.0000
     0.0000   0.0000   0.0000   0.0000   0.0000   0.0000

          k =-0.1250-0.1443-0.2041     band energies (ev):

    -5.2100  -5.2071  -3.9248  -3.8182  -3.2227  -1.9964  -1.2163  -0.7837
    -0.0163   0.7762   1.8333   2.9437   3.0128   3.0194   3.1612   3.2636
     3.6605   4.0626   4.2863   4.2989   4.3941   4.5109   4.9751   5.4387
     7.6927   7.9569   8.2663   8.3331   8.4784   8.6524   8.8178   9.3607
     9.4514   9.4557   9.9575  10.0950  10.2260  10.2575  10.6013  10.6177
    10.8246  11.1400  11.6207  12.1767  12.4290  12.4424  12.8150  13.0937
    13.1362  13.6453  14.2606  14.3602  14.4223  14.9918  15.2762  15.6061
    15.8734  15.8925  15.9682  16.0646  16.2651  16.8150  17.2592  17.2873
    17.3430  17.4740  17.6526  18.2163  18.2278  18.4751

     occupation numbers 
     0.0156   0.0156   0.0156   0.0156   0.0156   0.0156   0.0156   0.0156
     0.0156   0.0156   0.0156   0.0156   0.0156   0.0156   0.0156   0.0156
     0.0156   0.0156   0.0156   0.0156   0.0156   0.0156   0.0156   0.0156
     0.0000   0.0000   0.0000   0.0000   0.0000   0.0000   0.0000   0.0000
     0.0000   0.0000   0.0000   0.0000   0.0000   0.0000   0.0000   0.0000
     0.0000   0.0000   0.0000   0.0000   0.0000   0.0000   0.0000   0.0000
     0.0000   0.0000   0.0000   0.0000   0.0000   0.0000   0.0000   0.0000
     0.0000   0.0000   0.0000   0.0000   0.0000   0.0000   0.0000   0.0000
     0.0000   0.0000   0.0000   0.0000   0.0000   0.0000

          k =-0.1250-0.1443-0.1021     band energies (ev):

    -5.4765  -4.7742  -4.0904  -3.5649  -3.5647  -2.1904  -1.0672  -0.2897
    -0.2897   1.0378   2.0234   2.3108   2.7733   2.8937   3.3177   3.3178
     3.5168   4.0248   4.1950   4.2691   4.2693   4.9789   5.1737   5.2435
     8.0922   8.0963   8.3784   8.3786   8.5824   8.7224   9.0273   9.3614
     9.6321   9.6323   9.6695   9.9041  10.0152  10.1735  10.5908  10.7558
    10.9334  10.9336  11.0201  12.1594  12.1597  12.1922  12.5851  12.6136
    12.9267  14.0634  14.1071  14.4422  15.2972  15.3423  15.3426  15.5682
    15.7583  16.1615  16.1617  16.4596  16.7743  17.1611  17.3115  17.3116
    17.3453  17.5300  17.7603  18.0858  18.2579  18.3433

     occupation numbers 
     0.0156   0.0156   0.0156   0.0156   0.0156   0.0156   0.0156   0.0156
     0.0156   0.0156   0.0156   0.0156   0.0156   0.0156   0.0156   0.0156
     0.0156   0.0156   0.0156   0.0156   0.0156   0.0156   0.0156   0.0156
     0.0000   0.0000   0.0000   0.0000   0.0000   0.0000   0.0000   0.0000
     0.0000   0.0000   0.0000   0.0000   0.0000   0.0000   0.0000   0.0000
     0.0000   0.0000   0.0000   0.0000   0.0000   0.0000   0.0000   0.0000
     0.0000   0.0000   0.0000   0.0000   0.0000   0.0000   0.0000   0.0000
     0.0000   0.0000   0.0000   0.0000   0.0000   0.0000   0.0000   0.0000
     0.0000   0.0000   0.0000   0.0000   0.0000   0.0000

     highest occupied, lowest unoccupied level (ev):     6.0507    6.6218

     Writing output data file si111.save
 
     init_run     :      0.08s CPU      0.10s WALL (       1 calls)
     electrons    :    354.23s CPU    355.96s WALL (       1 calls)

     Called by init_run:
     wfcinit      :      0.00s CPU      0.00s WALL (       1 calls)
     potinit      :      0.01s CPU      0.01s WALL (       1 calls)

     Called by electrons:
     c_bands      :    354.22s CPU    355.95s WALL (       1 calls)
     v_of_rho     :      0.00s CPU      0.00s WALL (       1 calls)
     v_h          :      0.00s CPU      0.00s WALL (       1 calls)
     v_xc         :      0.00s CPU      0.00s WALL (       1 calls)

     Called by c_bands:
     init_us_2    :      0.00s CPU      0.04s WALL (     128 calls)
     cegterg      :    345.54s CPU    347.07s WALL (     289 calls)

     Called by sum_band:

     Called by *egterg:
     h_psi        :    114.01s CPU    115.63s WALL (    5023 calls)
     g_psi        :      2.02s CPU      2.08s WALL (    4606 calls)
     cdiaghg      :    151.12s CPU    151.13s WALL (    4734 calls)
     cegterg:over :     36.95s CPU     37.31s WALL (    4606 calls)
     cegterg:upda :     25.28s CPU     24.92s WALL (    4606 calls)
     cegterg:last :     15.16s CPU     15.22s WALL (     801 calls)

     Called by h_psi:
     h_psi:vloc   :    102.05s CPU    103.68s WALL (    5023 calls)
     h_psi:vnl    :     11.34s CPU     11.24s WALL (    5023 calls)
     add_vuspsi   :      4.99s CPU      4.97s WALL (    5023 calls)

     General routines
     calbec       :      6.31s CPU      6.25s WALL (    5023 calls)
     fft          :      0.00s CPU      0.00s WALL (       3 calls)
     fftw         :     94.90s CPU     96.20s WALL (  312412 calls)
     davcio       :      0.02s CPU      0.16s WALL (     256 calls)
 
     Parallel routines
     fft_scatter  :     27.01s CPU     27.03s WALL (  312415 calls)
 
     PWSCF        :  5m58.65s CPU     6m 2.85s WALL

 
   This run was terminated on:  14:51:30  20Sep2012            

=------------------------------------------------------------------------------=
   JOB DONE.
=------------------------------------------------------------------------------=
