
     Program PWSCF v.5.0.1 (svn rev. 9214M) starts on 20Sep2012 at 12:25:25 

     This program is part of the open-source Quantum ESPRESSO suite
     for quantum simulation of materials; please cite
         "P. Giannozzi et al., J. Phys.:Condens. Matter 21 395502 (2009);
          URL http://www.quantum-espresso.org", 
     in publications or presentations arising from this work. More details at
     http://www.quantum-espresso.org/quote.php

     Parallel version (MPI), running on     6 processors
     R & G space division:  proc/pool =    6

     Current dimensions of program PWSCF are:
     Max number of different atomic species (ntypx) = 10
     Max number of k-points (npk) =  40000
     Max angular momentum in pseudopotentials (lmaxx) =  3
     Reading input from /home/ferretti/want/tests/test12/nscf_graphite.in

     Atomic positions and unit cell read from directory:
     ./SCRATCH/graphite.save/
 

     Subspace diagonalization in iterative solution of the eigenvalue problem:
     a serial algorithm will be used

 
     Parallelization info
     --------------------
     sticks:   dense  smooth     PW     G-vecs:    dense   smooth      PW
     Min          48      25     10                 1833      651     166
     Max          50      26     11                 1836      662     172
     Sum         295     151     61                11007     3935    1009
 


     bravais-lattice index     =            4
     lattice parameter (alat)  =       4.5823  a.u.
     unit-cell volume          =     230.2399 (a.u.)^3
     number of atoms/cell      =            4
     number of atomic types    =            1
     number of electrons       =        16.00
     number of Kohn-Sham states=           20
     kinetic-energy cutoff     =      25.0000  Ry
     charge density cutoff     =     200.0000  Ry
     Exchange-correlation      =  SLA  PW   PBE  PBE ( 1 4 3 4 0)
     EXX-fraction              =        0.00

     celldm(1)=   4.582348  celldm(2)=   0.000000  celldm(3)=   2.763031
     celldm(4)=   0.000000  celldm(5)=   0.000000  celldm(6)=   0.000000

     crystal axes: (cart. coord. in units of alat)
               a(1) = (   1.000000   0.000000   0.000000 )  
               a(2) = (  -0.500000   0.866025   0.000000 )  
               a(3) = (   0.000000   0.000000   2.763031 )  

     reciprocal axes: (cart. coord. in units 2 pi/alat)
               b(1) = (  1.000000  0.577350  0.000000 )  
               b(2) = (  0.000000  1.154701  0.000000 )  
               b(3) = (  0.000000  0.000000  0.361921 )  


     PseudoPot. # 1 for C  read from file:
     ../pseudo/C.pbe-van_bm.UPF
     MD5 check sum: 1a69bf6b8db32088f5b2163dbdb77a27
     Pseudo is Ultrasoft, Zval =  4.0
     Generated by new atomic code, or converted to UPF format
     Using radial grid of  721 points,  4 beta functions with: 
                l(1) =   0
                l(2) =   0
                l(3) =   1
                l(4) =   1
     Q(r) pseudized with  8 coefficients,  rinner =    0.800   0.800   0.800


     atomic species   valence    mass     pseudopotential
        C              4.00    12.01100     C ( 1.00)

     No symmetry found



   Cartesian axes

     site n.     atom                  positions (alat units)
         1           C   tau(   1) = (   0.0000000   0.0000000   0.0000000  )
         2           C   tau(   2) = (   0.5000000   0.2886750   0.0000000  )
         3           C   tau(   3) = (   0.5000000   0.2886750   1.3815155  )
         4           C   tau(   4) = (   1.0000000   0.5773500   1.3815155  )

     number of k points=   256  gaussian smearing, width (Ry)=  0.0100

     Number of k-points >= 100: set verbosity='high' to print them.

     Dense  grid:    11007 G-vectors     FFT dimensions: (  24,  24,  60)

     Smooth grid:     3935 G-vectors     FFT dimensions: (  15,  15,  45)

     Largest allocated arrays     est. size (Mb)     dimensions
        Kohn-Sham Wavefunctions         0.03 Mb     (     94,   20)
        NL pseudopotentials             0.05 Mb     (     94,   32)
        Each V/rho on FFT grid          0.09 Mb     (   5760)
        Each G-vector array             0.01 Mb     (   1833)
        G-vector shells                 0.00 Mb     (    579)
     Largest temporary arrays     est. size (Mb)     dimensions
        Auxiliary wavefunctions         0.11 Mb     (     94,   80)
        Each subspace H/S matrix        0.10 Mb     (  80,  80)
        Each <psi_i|beta_j> matrix      0.01 Mb     (     32,   20)

     The potential is recalculated from file :
     ./SCRATCH/graphite.save/charge-density.dat

     Starting wfc are   16 randomized atomic wfcs

     total cpu time spent up to now is        1.0 secs

     per-process dynamical memory:     6.8 Mb

     Band Structure Calculation
     Davidson diagonalization with overlap

     ethr =  6.25E-11,  avg # of iterations = 16.2

     total cpu time spent up to now is       21.3 secs

     End of band structure calculation

     Number of k-points >= 100: set verbosity='high' to print the bands.

     the Fermi energy is     7.6347 ev

     Writing output data file graphite.save
 
     init_run     :      0.10s CPU      0.18s WALL (       1 calls)
     electrons    :     19.93s CPU     20.30s WALL (       1 calls)

     Called by init_run:
     wfcinit      :      0.00s CPU      0.00s WALL (       1 calls)
     potinit      :      0.00s CPU      0.04s WALL (       1 calls)

     Called by electrons:
     c_bands      :     19.93s CPU     20.30s WALL (       1 calls)
     v_of_rho     :      0.00s CPU      0.01s WALL (       1 calls)
     newd         :      0.01s CPU      0.00s WALL (       1 calls)

     Called by c_bands:
     init_us_2    :      0.00s CPU      0.01s WALL (     256 calls)
     cegterg      :     18.27s CPU     18.92s WALL (     275 calls)

     Called by *egterg:
     h_psi        :      7.19s CPU      8.15s WALL (    4667 calls)
     s_psi        :      0.29s CPU      0.23s WALL (    4667 calls)
     g_psi        :      0.06s CPU      0.11s WALL (    4136 calls)
     cdiaghg      :      9.04s CPU      9.15s WALL (    4392 calls)

     Called by h_psi:
     add_vuspsi   :      0.25s CPU      0.24s WALL (    4667 calls)

     General routines
     calbec       :      0.37s CPU      0.42s WALL (    4667 calls)
     fft          :      0.01s CPU      0.01s WALL (      12 calls)
     ffts         :      0.00s CPU      0.00s WALL (       1 calls)
     fftw         :      5.95s CPU      6.78s WALL (  114572 calls)
     interpolate  :      0.00s CPU      0.00s WALL (       1 calls)
     davcio       :      1.27s CPU      0.18s WALL (     512 calls)
 
     Parallel routines
     fft_scatter  :      2.57s CPU      2.80s WALL (  114585 calls)
 
     PWSCF        :    22.21s CPU        23.10s WALL

 
   This run was terminated on:  12:25:48  20Sep2012            

=------------------------------------------------------------------------------=
   JOB DONE.
=------------------------------------------------------------------------------=
