
     Program POST-PROC v.3.2    starts ...
     Today is  8Jun2007 at 12:39:59 

     nbndx  =    70  nbnd   =    70  natomwfc =    48  npwx   =    3432
     nelec  =  48.00  nkb   =    48  ngl    =    3876
