
     Program POST-PROC v.3.2cvs starts ...
     Today is 14Oct2006 at 10:31: 5 

     nbndx  =    60  nbnd   =    60  natomwfc =    48  npwx   =    3448
     nelec  =  48.00  nkb   =    48  ngl    =    1476
