
     Program PWSCF v.5.0.1 (svn rev. 9214M) starts on 14Aug2012 at 22: 8: 1 

     This program is part of the open-source Quantum ESPRESSO suite
     for quantum simulation of materials; please cite
         "P. Giannozzi et al., J. Phys.:Condens. Matter 21 395502 (2009);
          URL http://www.quantum-espresso.org", 
     in publications or presentations arising from this work. More details at
     http://www.quantum-espresso.org/quote.php

     Parallel version (MPI), running on     6 processors
     R & G space division:  proc/pool =    6

     Current dimensions of program PWSCF are:
     Max number of different atomic species (ntypx) = 10
     Max number of k-points (npk) =  40000
     Max angular momentum in pseudopotentials (lmaxx) =  3
     Reading input from /home/ferretti/want/tests/test12/scf_graphite.in

     Subspace diagonalization in iterative solution of the eigenvalue problem:
     a serial algorithm will be used

 
     Parallelization info
     --------------------
     sticks:   dense  smooth     PW     G-vecs:    dense   smooth      PW
     Min          48      25      9                 1833      651     161
     Max          50      26     10                 1836      666     172
     Sum         295     151     55                11007     3935     979
 


     bravais-lattice index     =            4
     lattice parameter (alat)  =       4.5823  a.u.
     unit-cell volume          =     230.2399 (a.u.)^3
     number of atoms/cell      =            4
     number of atomic types    =            1
     number of electrons       =        16.00
     number of Kohn-Sham states=           12
     kinetic-energy cutoff     =      25.0000  Ry
     charge density cutoff     =     200.0000  Ry
     convergence threshold     =      1.0E-08
     mixing beta               =       0.3000
     number of iterations used =            8  plain     mixing
     Exchange-correlation      =  SLA  PW   PBE  PBE ( 1 4 3 4 0)
     EXX-fraction              =        0.00

     celldm(1)=   4.582348  celldm(2)=   0.000000  celldm(3)=   2.763031
     celldm(4)=   0.000000  celldm(5)=   0.000000  celldm(6)=   0.000000

     crystal axes: (cart. coord. in units of alat)
               a(1) = (   1.000000   0.000000   0.000000 )  
               a(2) = (  -0.500000   0.866025   0.000000 )  
               a(3) = (   0.000000   0.000000   2.763031 )  

     reciprocal axes: (cart. coord. in units 2 pi/alat)
               b(1) = (  1.000000  0.577350  0.000000 )  
               b(2) = (  0.000000  1.154701  0.000000 )  
               b(3) = (  0.000000  0.000000  0.361921 )  


     PseudoPot. # 1 for C  read from file:
     ../pseudo/C.pbe-van_bm.UPF
     MD5 check sum: 1a69bf6b8db32088f5b2163dbdb77a27
     Pseudo is Ultrasoft, Zval =  4.0
     Generated by new atomic code, or converted to UPF format
     Using radial grid of  721 points,  4 beta functions with: 
                l(1) =   0
                l(2) =   0
                l(3) =   1
                l(4) =   1
     Q(r) pseudized with  8 coefficients,  rinner =    0.800   0.800   0.800


     atomic species   valence    mass     pseudopotential
        C              4.00    12.01100     C ( 1.00)

     24 Sym. Ops., with inversion, found (12 have fractional translation)



   Cartesian axes

     site n.     atom                  positions (alat units)
         1           C   tau(   1) = (   0.0000000   0.0000000   0.0000000  )
         2           C   tau(   2) = (   0.5000000   0.2886750   0.0000000  )
         3           C   tau(   3) = (   0.5000000   0.2886750   1.3815155  )
         4           C   tau(   4) = (   1.0000000   0.5773500   1.3815155  )

     number of k points=   288  gaussian smearing, width (Ry)=  0.0100

     Number of k-points >= 100: set verbosity='high' to print them.

     Dense  grid:    11007 G-vectors     FFT dimensions: (  24,  24,  60)

     Smooth grid:     3935 G-vectors     FFT dimensions: (  15,  15,  45)

     Largest allocated arrays     est. size (Mb)     dimensions
        Kohn-Sham Wavefunctions         0.02 Mb     (     88,   12)
        NL pseudopotentials             0.04 Mb     (     88,   32)
        Each V/rho on FFT grid          0.09 Mb     (   5760)
        Each G-vector array             0.01 Mb     (   1833)
        G-vector shells                 0.00 Mb     (    553)
     Largest temporary arrays     est. size (Mb)     dimensions
        Auxiliary wavefunctions         0.06 Mb     (     88,   48)
        Each subspace H/S matrix        0.04 Mb     (  48,  48)
        Each <psi_i|beta_j> matrix      0.01 Mb     (     32,   12)
        Arrays for rho mixing           0.70 Mb     (   5760,   8)

     Initial potential from superposition of free atoms

     starting charge   15.99984, renormalised to   16.00000
     Starting wfc are   16 randomized atomic wfcs

     total cpu time spent up to now is        1.7 secs

     per-process dynamical memory:     6.9 Mb

     Self-consistent Calculation

     iteration #  1     ecut=    25.00 Ry     beta=0.30
     Davidson diagonalization with overlap
     ethr =  1.00E-02,  avg # of iterations =  3.3

     total cpu time spent up to now is        4.8 secs

     total energy              =     -45.60054634 Ry
     Harris-Foulkes estimate   =     -45.74352782 Ry
     estimated scf accuracy    <       0.43085102 Ry

     iteration #  2     ecut=    25.00 Ry     beta=0.30
     Davidson diagonalization with overlap
     ethr =  2.69E-03,  avg # of iterations =  1.1

     total cpu time spent up to now is        6.6 secs

     total energy              =     -45.53192629 Ry
     Harris-Foulkes estimate   =     -45.61229457 Ry
     estimated scf accuracy    <       0.14452239 Ry

     iteration #  3     ecut=    25.00 Ry     beta=0.30
     Davidson diagonalization with overlap
     ethr =  9.03E-04,  avg # of iterations =  2.7

     total cpu time spent up to now is        9.0 secs

     total energy              =     -45.55362104 Ry
     Harris-Foulkes estimate   =     -45.55363104 Ry
     estimated scf accuracy    <       0.00205573 Ry

     iteration #  4     ecut=    25.00 Ry     beta=0.30
     Davidson diagonalization with overlap
     ethr =  1.28E-05,  avg # of iterations =  4.0

     total cpu time spent up to now is       12.0 secs

     total energy              =     -45.55371733 Ry
     Harris-Foulkes estimate   =     -45.55398530 Ry
     estimated scf accuracy    <       0.00051062 Ry

     iteration #  5     ecut=    25.00 Ry     beta=0.30
     Davidson diagonalization with overlap
     ethr =  3.19E-06,  avg # of iterations =  2.5

     total cpu time spent up to now is       14.5 secs

     total energy              =     -45.55381081 Ry
     Harris-Foulkes estimate   =     -45.55380648 Ry
     estimated scf accuracy    <       0.00000607 Ry

     iteration #  6     ecut=    25.00 Ry     beta=0.30
     Davidson diagonalization with overlap
     ethr =  3.79E-08,  avg # of iterations =  2.0

     total cpu time spent up to now is       16.5 secs

     total energy              =     -45.55381423 Ry
     Harris-Foulkes estimate   =     -45.55381155 Ry
     estimated scf accuracy    <       0.00000050 Ry

     iteration #  7     ecut=    25.00 Ry     beta=0.30
     Davidson diagonalization with overlap
     ethr =  3.11E-09,  avg # of iterations =  2.0

     total cpu time spent up to now is       18.5 secs

     End of self-consistent calculation

     Number of k-points >= 100: set verbosity='high' to print the bands.

     the Fermi energy is     7.4299 ev

!    total energy              =     -45.55381679 Ry
     Harris-Foulkes estimate   =     -45.55381428 Ry
     estimated scf accuracy    <          7.4E-09 Ry

     The total energy is the sum of the following terms:

     one-electron contribution =     -11.55496897 Ry
     hartree contribution      =      13.86456247 Ry
     xc contribution           =     -14.13788614 Ry
     ewald contribution        =     -33.72551053 Ry
     smearing contrib. (-TS)   =      -0.00001362 Ry

     convergence has been achieved in   7 iterations

     Forces acting on atoms (Ry/au):

     atom    1 type  1   force =     0.00000000    0.00000000    0.00000000
     atom    2 type  1   force =     0.00000000    0.00000000    0.00000000
     atom    3 type  1   force =     0.00000000    0.00000000    0.00000000
     atom    4 type  1   force =     0.00000000    0.00000000    0.00000000

     Total force =     0.000000     Total SCF correction =     0.000000

     Writing output data file graphite.save
 
     init_run     :      1.14s CPU      1.32s WALL (       1 calls)
     electrons    :     16.26s CPU     16.81s WALL (       1 calls)
     forces       :      0.13s CPU      0.13s WALL (       1 calls)

     Called by init_run:
     wfcinit      :      1.05s CPU      1.11s WALL (       1 calls)
     potinit      :      0.02s CPU      0.04s WALL (       1 calls)

     Called by electrons:
     c_bands      :     14.19s CPU     14.59s WALL (       7 calls)
     sum_band     :      1.93s CPU      2.02s WALL (       7 calls)
     v_of_rho     :      0.07s CPU      0.05s WALL (       8 calls)
     newd         :      0.02s CPU      0.04s WALL (       8 calls)
     mix_rho      :      0.01s CPU      0.04s WALL (       7 calls)

     Called by c_bands:
     init_us_2    :      0.21s CPU      0.20s WALL (    4608 calls)
     cegterg      :     13.69s CPU     13.97s WALL (    2016 calls)

     Called by *egterg:
     h_psi        :      9.37s CPU      9.57s WALL (    7391 calls)
     s_psi        :      0.29s CPU      0.28s WALL (    7391 calls)
     g_psi        :      0.10s CPU      0.09s WALL (    5087 calls)
     cdiaghg      :      3.37s CPU      3.56s WALL (    7103 calls)

     Called by h_psi:
     add_vuspsi   :      0.23s CPU      0.30s WALL (    7391 calls)

     General routines
     calbec       :      0.80s CPU      0.80s WALL (    9695 calls)
     fft          :      0.03s CPU      0.05s WALL (     126 calls)
     ffts         :      0.01s CPU      0.00s WALL (      15 calls)
     fftw         :      8.91s CPU      9.22s WALL (  158076 calls)
     interpolate  :      0.01s CPU      0.01s WALL (      15 calls)
     davcio       :      0.09s CPU      0.18s WALL (    6624 calls)
 
     Parallel routines
     fft_scatter  :      3.70s CPU      3.85s WALL (  158217 calls)
 
     PWSCF        :    18.14s CPU        28.20s WALL

 
   This run was terminated on:  22: 8:29  14Aug2012            

=------------------------------------------------------------------------------=
   JOB DONE.
=------------------------------------------------------------------------------=
