
     Program POST-PROC v.3.2cvs starts ...
     Today is 14Oct2006 at  7: 9:53 

     nbndx  =    80  nbnd   =    80  natomwfc =    41  npwx   =   13779
     nelec  =  31.00  nkb   =    40  ngl    =    8582
