
     Program POST-PROC v.3.2    starts ...
     Today is 19May2007 at  3:13:31 

     nbndx  =    80  nbnd   =    80  natomwfc =    41  npwx   =   13779
     nelec  =  31.00  nkb   =    40  ngl    =    8582
