
     Program POST-PROC v.3.1    starts ...
     Today is 12Apr2006 at  0:41:15 

     nbndx  =    80  nbnd   =    80  natomwfc =    41  npwx   =   13779
     nelec  =  31.00  nkb   =    40  ngl    =    8582
