
     Program POST-PROC v.2.1.5  starts ...
     Today is 19Jan2006 at 13:46:13 

     Reading file al5.save ... 
     read complete

     Reading file al5.save ... 
     read complete

     nbndx  =    50  nbnd   =    50  natomwfc =    20  npwx   =    3235
     nelec  =   15.00 nkb   =    20  ngl    =    1594
