
     Program POST-PROC v.2.1.5  starts ...
     Today is 19Jan2006 at 17:54:58 

     Reading file alh.save ... 
     read complete

     Reading file alh.save ... 
     read complete

     nbndx  =    80  nbnd   =    80  natomwfc =    41  npwx   =   13779
     nelec  =   31.00 nkb   =    40  ngl    =    8582
