
     Program POST-PROC v.3.1    starts ...
     Today is 12Apr2006 at  0:28: 6 

     nbndx  =    50  nbnd   =    50  natomwfc =    20  npwx   =    3235
     nelec  =  15.00  nkb   =    20  ngl    =    1594
