
     Program POST-PROC v.3.2cvs starts ...
     Today is 14Oct2006 at  7:13:42 

     nbndx  =    20  nbnd   =    20  natomwfc =     4  npwx   =     654
     nelec  =   3.00  nkb   =     4  ngl    =     320
