
     Program POST-PROC v.3.1    starts ...
     Today is 12Apr2006 at  0:44:14 

     nbndx  =    20  nbnd   =    20  natomwfc =     4  npwx   =     654
     nelec  =   3.00  nkb   =     4  ngl    =     320
