
     Program PWSCF v.5.0        starts on  4Dec2012 at 23:35:32 

     This program is part of the open-source Quantum ESPRESSO suite
     for quantum simulation of materials; please cite
         "P. Giannozzi et al., J. Phys.:Condens. Matter 21 395502 (2009);
          URL http://www.quantum-espresso.org", 
     in publications or presentations arising from this work. More details at
     http://www.quantum-espresso.org/quote.php

     Parallel version (MPI), running on     6 processors
     R & G space division:  proc/pool =    6

     Current dimensions of program PWSCF are:
     Max number of different atomic species (ntypx) = 10
     Max number of k-points (npk) =  40000
     Max angular momentum in pseudopotentials (lmaxx) =  3
     Reading input from /home/ferretti/want/tests/test18/scf_AuUS.in

     gamma-point specific algorithms are used

     Subspace diagonalization in iterative solution of the eigenvalue problem:
     a serial algorithm will be used

     Found symmetry operation: I + (  0.0000  0.0000  0.2000)
     This is a supercell, fractional translations are disabled
 
     Parallelization info
     --------------------
     sticks:   dense  smooth     PW     G-vecs:    dense   smooth      PW
     Min        1060     530    131                75196    26590    3332
     Max        1064     531    134                75198    26641    3342
     Sum        6369    3181    793               451179   159687   20005
     Tot        3185    1591    397
 


     bravais-lattice index     =            8
     lattice parameter (alat)  =      20.0000  a.u.
     unit-cell volume          =    9448.6400 (a.u.)^3
     number of atoms/cell      =            5
     number of atomic types    =            1
     number of electrons       =        55.00
     number of Kohn-Sham states=           50
     kinetic-energy cutoff     =      25.0000  Ry
     charge density cutoff     =     200.0000  Ry
     convergence threshold     =      1.0E-08
     mixing beta               =       0.3000
     number of iterations used =            8  plain     mixing
     Exchange-correlation      =  SLA  PW   GGX  GGC ( 1 4 2 2 0)
     EXX-fraction              =        0.00

     celldm(1)=  20.000000  celldm(2)=   1.000000  celldm(3)=   1.181080
     celldm(4)=   0.000000  celldm(5)=   0.000000  celldm(6)=   0.000000

     crystal axes: (cart. coord. in units of alat)
               a(1) = (   1.000000   0.000000   0.000000 )  
               a(2) = (   0.000000   1.000000   0.000000 )  
               a(3) = (   0.000000   0.000000   1.181080 )  

     reciprocal axes: (cart. coord. in units 2 pi/alat)
               b(1) = (  1.000000  0.000000  0.000000 )  
               b(2) = (  0.000000  1.000000  0.000000 )  
               b(3) = (  0.000000  0.000000  0.846683 )  


     PseudoPot. # 1 for Au read from file:
     ../pseudo/Au.pw91-d-van.UPF
     MD5 check sum: dc02f59ef2ea6b62d9e9493d750aaae0
     Pseudo is Ultrasoft, Zval = 11.0
     Generated by new atomic code, or converted to UPF format
     Using radial grid of  939 points,  6 beta functions with: 
                l(1) =   0
                l(2) =   0
                l(3) =   1
                l(4) =   1
                l(5) =   2
                l(6) =   2
     Q(r) pseudized with  3 coefficients,  rinner =    1.600   1.800   1.600
                                                       1.600   1.800

     atomic species   valence    mass     pseudopotential
        Au            11.00   196.96650     Au( 1.00)

     16 Sym. Ops., with inversion, found



   Cartesian axes

     site n.     atom                  positions (alat units)
         1           Au  tau(   1) = (   0.0000000   0.0000000   0.0000000  )
         2           Au  tau(   2) = (   0.0000000   0.0000000   0.2362160  )
         3           Au  tau(   3) = (   0.0000000   0.0000000   0.4724320  )
         4           Au  tau(   4) = (   0.0000000   0.0000000   0.7086480  )
         5           Au  tau(   5) = (   0.0000000   0.0000000   0.9448640  )

     number of k points=     1  gaussian smearing, width (Ry)=  0.0100
                       cart. coord. in units 2pi/alat
        k(    1) = (   0.0000000   0.0000000   0.0000000), wk =   2.0000000

     Dense  grid:   225590 G-vectors     FFT dimensions: (  96,  96, 108)

     Smooth grid:    79844 G-vectors     FFT dimensions: (  64,  64,  75)

     Largest allocated arrays     est. size (Mb)     dimensions
        Kohn-Sham Wavefunctions         1.27 Mb     (   1668,   50)
        NL pseudopotentials             2.29 Mb     (   1668,   90)
        Each V/rho on FFT grid          2.53 Mb     ( 165888)
        Each G-vector array             0.29 Mb     (  37599)
        G-vector shells                 0.10 Mb     (  13299)
     Largest temporary arrays     est. size (Mb)     dimensions
        Auxiliary wavefunctions         2.55 Mb     (   1668,  200)
        Each subspace H/S matrix        0.31 Mb     ( 200, 200)
        Each <psi_i|beta_j> matrix      0.03 Mb     (     90,   50)
        Arrays for rho mixing          20.25 Mb     ( 165888,   8)

     Initial potential from superposition of free atoms
     Check: negative starting charge=   -0.001892

     starting charge   54.93921, renormalised to   55.00000

     negative rho (up, down):  0.189E-02 0.000E+00
     Starting wfc are   45 randomized atomic wfcs

     total cpu time spent up to now is        2.1 secs

     per-process dynamical memory:    35.8 Mb

     Self-consistent Calculation

     iteration #  1     ecut=    25.00 Ry     beta=0.30
     Davidson diagonalization with overlap
     ethr =  1.00E-02,  avg # of iterations =  9.0

     Threshold (ethr) on eigenvalues was too large:
     Diagonalizing with lowered threshold

     Davidson diagonalization with overlap
     ethr =  1.54E-04,  avg # of iterations = 14.0

     negative rho (up, down):  0.199E-02 0.000E+00

     total cpu time spent up to now is        6.4 secs

     total energy              =    -336.58585123 Ry
     Harris-Foulkes estimate   =    -336.60535601 Ry
     estimated scf accuracy    <       0.08377230 Ry

     iteration #  2     ecut=    25.00 Ry     beta=0.30
     Davidson diagonalization with overlap
     ethr =  1.52E-04,  avg # of iterations =  1.0

     negative rho (up, down):  0.242E-02 0.000E+00

     total cpu time spent up to now is        8.7 secs

     total energy              =    -336.57633908 Ry
     Harris-Foulkes estimate   =    -336.58835774 Ry
     estimated scf accuracy    <       0.03496652 Ry

     iteration #  3     ecut=    25.00 Ry     beta=0.30
     Davidson diagonalization with overlap
     ethr =  6.36E-05,  avg # of iterations =  2.0

     negative rho (up, down):  0.370E-02 0.000E+00

     total cpu time spent up to now is       11.0 secs

     total energy              =    -336.57742746 Ry
     Harris-Foulkes estimate   =    -336.57782788 Ry
     estimated scf accuracy    <       0.00351857 Ry

     iteration #  4     ecut=    25.00 Ry     beta=0.30
     Davidson diagonalization with overlap
     ethr =  6.40E-06,  avg # of iterations =  4.0

     negative rho (up, down):  0.404E-02 0.000E+00

     total cpu time spent up to now is       13.5 secs

     total energy              =    -336.57784373 Ry
     Harris-Foulkes estimate   =    -336.57796640 Ry
     estimated scf accuracy    <       0.00035267 Ry

     iteration #  5     ecut=    25.00 Ry     beta=0.30
     Davidson diagonalization with overlap
     ethr =  6.41E-07,  avg # of iterations =  2.0

     negative rho (up, down):  0.459E-02 0.000E+00

     total cpu time spent up to now is       15.9 secs

     total energy              =    -336.57795585 Ry
     Harris-Foulkes estimate   =    -336.57793662 Ry
     estimated scf accuracy    <       0.00004093 Ry

     iteration #  6     ecut=    25.00 Ry     beta=0.30
     Davidson diagonalization with overlap
     ethr =  7.44E-08,  avg # of iterations =  3.0

     negative rho (up, down):  0.481E-02 0.000E+00

     total cpu time spent up to now is       18.3 secs

     total energy              =    -336.57796222 Ry
     Harris-Foulkes estimate   =    -336.57796530 Ry
     estimated scf accuracy    <       0.00001845 Ry

     iteration #  7     ecut=    25.00 Ry     beta=0.30
     Davidson diagonalization with overlap
     ethr =  3.35E-08,  avg # of iterations =  1.0

     negative rho (up, down):  0.480E-02 0.000E+00

     total cpu time spent up to now is       20.5 secs

     total energy              =    -336.57795845 Ry
     Harris-Foulkes estimate   =    -336.57796445 Ry
     estimated scf accuracy    <       0.00000290 Ry

     iteration #  8     ecut=    25.00 Ry     beta=0.30
     Davidson diagonalization with overlap
     ethr =  5.27E-09,  avg # of iterations =  2.0

     negative rho (up, down):  0.482E-02 0.000E+00

     total cpu time spent up to now is       22.8 secs

     total energy              =    -336.57795737 Ry
     Harris-Foulkes estimate   =    -336.57795877 Ry
     estimated scf accuracy    <       0.00000036 Ry

     iteration #  9     ecut=    25.00 Ry     beta=0.30
     Davidson diagonalization with overlap
     ethr =  6.54E-10,  avg # of iterations =  3.0

     negative rho (up, down):  0.484E-02 0.000E+00

     total cpu time spent up to now is       25.2 secs

     total energy              =    -336.57795699 Ry
     Harris-Foulkes estimate   =    -336.57795744 Ry
     estimated scf accuracy    <       0.00000014 Ry

     iteration # 10     ecut=    25.00 Ry     beta=0.30
     Davidson diagonalization with overlap
     ethr =  2.57E-10,  avg # of iterations =  2.0

     negative rho (up, down):  0.486E-02 0.000E+00

     total cpu time spent up to now is       27.4 secs

     End of self-consistent calculation

          k = 0.0000 0.0000 0.0000 ( 10003 PWs)   bands (ev):

   -11.0427  -9.0402  -9.0402  -8.4601  -8.4601  -8.4600  -8.4600  -6.9703
    -6.9703  -6.8552  -6.8552  -6.8551  -6.8551  -6.7476  -6.7476  -6.7469
    -6.7468  -6.6155  -6.3689  -6.3688  -6.3678  -6.3677  -6.0236  -6.0235
    -5.8422  -5.8421  -5.3836  -5.3836  -2.8217  -2.8216  -1.2468  -1.2468
     0.2892   0.2892   0.2893   0.2893   1.0150   1.9545   1.9549   1.9754
     2.7514   2.7515   2.7556   2.8140   2.9171   2.9178   3.3809   3.3809
     3.3809   3.3809

     the Fermi energy is    -5.3187 ev

!    total energy              =    -336.57795588 Ry
     Harris-Foulkes estimate   =    -336.57795701 Ry
     estimated scf accuracy    <          8.8E-09 Ry

     The total energy is the sum of the following terms:

     one-electron contribution =    -616.72427192 Ry
     hartree contribution      =     327.68423507 Ry
     xc contribution           =     -51.76625568 Ry
     ewald contribution        =       4.23732473 Ry
     smearing contrib. (-TS)   =      -0.00898808 Ry

     convergence has been achieved in  10 iterations

     Forces acting on atoms (Ry/au):

     atom    1 type  1   force =     0.00000000    0.00000000    0.00000000
     atom    2 type  1   force =     0.00000000    0.00000000    0.00001816
     atom    3 type  1   force =     0.00000000    0.00000000   -0.00000894
     atom    4 type  1   force =     0.00000000    0.00000000    0.00000894
     atom    5 type  1   force =     0.00000000    0.00000000   -0.00001816

     Total force =     0.000029     Total SCF correction =     0.000234
     SCF correction compared to forces is large: reduce conv_thr to get better values

     Writing output data file gold_US.save
 
     init_run     :      2.01s CPU      2.03s WALL (       1 calls)
     electrons    :     24.77s CPU     25.25s WALL (       1 calls)
     forces       :      2.01s CPU      2.02s WALL (       1 calls)

     Called by init_run:
     wfcinit      :      0.18s CPU      0.18s WALL (       1 calls)
     potinit      :      0.69s CPU      0.69s WALL (       1 calls)

     Called by electrons:
     c_bands      :      6.15s CPU      6.26s WALL (      11 calls)
     sum_band     :      8.59s CPU      8.77s WALL (      11 calls)
     v_of_rho     :      2.95s CPU      3.06s WALL (      11 calls)
     newd         :      6.51s CPU      6.53s WALL (      11 calls)
     mix_rho      :      0.43s CPU      0.43s WALL (      11 calls)

     Called by c_bands:
     init_us_2    :      0.02s CPU      0.05s WALL (      23 calls)
     regterg      :      5.86s CPU      5.97s WALL (      11 calls)

     Called by *egterg:
     h_psi        :      4.58s CPU      4.60s WALL (      55 calls)
     s_psi        :      0.41s CPU      0.37s WALL (      55 calls)
     g_psi        :      0.02s CPU      0.04s WALL (      43 calls)
     rdiaghg      :      0.34s CPU      0.34s WALL (      53 calls)

     Called by h_psi:
     add_vuspsi   :      0.33s CPU      0.36s WALL (      55 calls)

     General routines
     calbec       :      0.44s CPU      0.45s WALL (     277 calls)
     fft          :      2.89s CPU      2.93s WALL (     178 calls)
     ffts         :      0.08s CPU      0.09s WALL (      22 calls)
     fftw         :      3.59s CPU      3.59s WALL (    1699 calls)
     interpolate  :      0.49s CPU      0.51s WALL (      22 calls)
     davcio       :      0.00s CPU      0.01s WALL (      11 calls)
 
     Parallel routines
     fft_scatter  :      2.59s CPU      2.60s WALL (    1899 calls)
     EXX routines
 
     PWSCF        :    29.08s CPU        29.65s WALL

 
   This run was terminated on:  23:36: 2   4Dec2012            

=------------------------------------------------------------------------------=
   JOB DONE.
=------------------------------------------------------------------------------=
