
     Program PWSCF v.5.0.2 (svn rev. 9392) starts on 18Apr2014 at 13:17:39 

     This program is part of the open-source Quantum ESPRESSO suite
     for quantum simulation of materials; please cite
         "P. Giannozzi et al., J. Phys.:Condens. Matter 21 395502 (2009);
          URL http://www.quantum-espresso.org", 
     in publications or presentations arising from this work. More details at
     http://www.quantum-espresso.org/quote.php

     Parallel version (MPI), running on     6 processors
     R & G space division:  proc/nbgrp/npool/nimage =       6

     Current dimensions of program PWSCF are:
     Max number of different atomic species (ntypx) = 10
     Max number of k-points (npk) =  40000
     Max angular momentum in pseudopotentials (lmaxx) =  3
     Reading input from /home/ferretti/devel/want/tests/test13/scf_H6_qe.in
               file H.pz-rrkjus.UPF: wavefunction(s)  1S renormalized

     Subspace diagonalization in iterative solution of the eigenvalue problem:
     a serial algorithm will be used

     Found symmetry operation: I + (  0.0000  0.0000 -0.5000)
     This is a supercell, fractional translations are disabled
 
     Parallelization info
     --------------------
     sticks:   dense  smooth     PW     G-vecs:    dense   smooth      PW
     Min        1060     530    139                60798    21480    2892
     Max        1062     531    142                60799    21497    2893
     Sum        6369    3181    845               364789   128913   17355
 


     bravais-lattice index     =            8
     lattice parameter (alat)  =      20.0000  a.u.
     unit-cell volume          =    7637.4567 (a.u.)^3
     number of atoms/cell      =            6
     number of atomic types    =            1
     number of electrons       =         6.00
     number of Kohn-Sham states=            7
     kinetic-energy cutoff     =      25.0000  Ry
     charge density cutoff     =     200.0000  Ry
     convergence threshold     =      1.0E-08
     mixing beta               =       0.3000
     number of iterations used =            8  plain     mixing
     Exchange-correlation      =  SLA  PZ   NOGX NOGC ( 1 1 0 0 0)
     EXX-fraction              =        0.00

     celldm(1)=  20.000000  celldm(2)=   1.000000  celldm(3)=   0.954682
     celldm(4)=   0.000000  celldm(5)=   0.000000  celldm(6)=   0.000000

     crystal axes: (cart. coord. in units of alat)
               a(1) = (   1.000000   0.000000   0.000000 )  
               a(2) = (   0.000000   1.000000   0.000000 )  
               a(3) = (   0.000000   0.000000   0.954682 )  

     reciprocal axes: (cart. coord. in units 2 pi/alat)
               b(1) = (  1.000000  0.000000  0.000000 )  
               b(2) = (  0.000000  1.000000  0.000000 )  
               b(3) = (  0.000000  0.000000  1.047469 )  


     PseudoPot. # 1 for H  read from file:
     ../pseudo/H.pz-rrkjus.UPF
     MD5 check sum: c325bf28c048744aca8614a82587641e
     Pseudo is Ultrasoft, Zval =  1.0
     Generated by new atomic code, or converted to UPF format
     Using radial grid of 1061 points,  2 beta functions with: 
                l(1) =   0
                l(2) =   0
     Q(r) pseudized with 0 coefficients 


     atomic species   valence    mass     pseudopotential
        H              1.00     1.00800     H ( 1.00)

     16 Sym. Ops., with inversion, found



   Cartesian axes

     site n.     atom                  positions (alat units)
         1           H   tau(   1) = (   0.0000000   0.0000000   0.0000000  )
         2           H   tau(   2) = (   0.0000000   0.0000000  -0.4773409  )
         3           H   tau(   3) = (   0.0000000   0.0000000   0.3182273  )
         4           H   tau(   4) = (   0.0000000   0.0000000  -0.3182273  )
         5           H   tau(   5) = (   0.0000000   0.0000000   0.1591136  )
         6           H   tau(   6) = (   0.0000000   0.0000000  -0.1591136  )

     number of k points=     2  gaussian smearing, width (Ry)=  0.0100
                       cart. coord. in units 2pi/alat
        k(    1) = (   0.0000000   0.0000000   0.1309336), wk =   1.0000000
        k(    2) = (   0.0000000   0.0000000   0.3928009), wk =   1.0000000

     Dense  grid:   364789 G-vectors     FFT dimensions: (  96,  96,  90)

     Smooth grid:   128913 G-vectors     FFT dimensions: (  64,  64,  64)

     Largest allocated arrays     est. size (Mb)     dimensions
        Kohn-Sham Wavefunctions         0.29 Mb     (   2690,    7)
        NL pseudopotentials             0.49 Mb     (   2690,   12)
        Each V/rho on FFT grid          2.11 Mb     ( 138240)
        Each G-vector array             0.46 Mb     (  60798)
        G-vector shells                 0.12 Mb     (  15391)
     Largest temporary arrays     est. size (Mb)     dimensions
        Auxiliary wavefunctions         1.15 Mb     (   2690,   28)
        Each subspace H/S matrix        0.01 Mb     (  28,  28)
        Each <psi_i|beta_j> matrix      0.00 Mb     (     12,    7)
        Arrays for rho mixing          16.88 Mb     ( 138240,   8)

     Initial potential from superposition of free atoms
     Check: negative starting charge=   -0.000760

     starting charge    5.44729, renormalised to    6.00000

     negative rho (up, down):  0.838E-03 0.000E+00
     Starting wfc are    6 randomized atomic wfcs

     total cpu time spent up to now is        1.0 secs

     per-process dynamical memory:    31.5 Mb

     Self-consistent Calculation

     iteration #  1     ecut=    25.00 Ry     beta=0.30
     Davidson diagonalization with overlap
     ethr =  1.00E-02,  avg # of iterations =  5.0

     negative rho (up, down):  0.597E-03 0.000E+00

     total cpu time spent up to now is        1.6 secs

     total energy              =      -6.38018021 Ry
     Harris-Foulkes estimate   =      -6.61751356 Ry
     estimated scf accuracy    <       0.68454358 Ry

     iteration #  2     ecut=    25.00 Ry     beta=0.30
     Davidson diagonalization with overlap
     ethr =  1.00E-02,  avg # of iterations =  1.0

     negative rho (up, down):  0.666E-03 0.000E+00

     total cpu time spent up to now is        2.1 secs

     total energy              =      -6.18847501 Ry
     Harris-Foulkes estimate   =      -6.38436464 Ry
     estimated scf accuracy    <       0.30457133 Ry

     iteration #  3     ecut=    25.00 Ry     beta=0.30
     Davidson diagonalization with overlap
     ethr =  5.08E-03,  avg # of iterations =  1.0

     negative rho (up, down):  0.392E-03 0.000E+00

     total cpu time spent up to now is        2.5 secs

     total energy              =      -6.21848723 Ry
     Harris-Foulkes estimate   =      -6.21295549 Ry
     estimated scf accuracy    <       0.00352711 Ry

     iteration #  4     ecut=    25.00 Ry     beta=0.30
     Davidson diagonalization with overlap
     ethr =  5.88E-05,  avg # of iterations =  6.0

     negative rho (up, down):  0.109E-02 0.000E+00

     total cpu time spent up to now is        3.1 secs

     total energy              =      -6.21370862 Ry
     Harris-Foulkes estimate   =      -6.21977294 Ry
     estimated scf accuracy    <       0.01322917 Ry

     iteration #  5     ecut=    25.00 Ry     beta=0.30
     Davidson diagonalization with overlap
     ethr =  5.88E-05,  avg # of iterations =  3.0

     negative rho (up, down):  0.805E-03 0.000E+00

     total cpu time spent up to now is        3.6 secs

     total energy              =      -6.21454013 Ry
     Harris-Foulkes estimate   =      -6.21454524 Ry
     estimated scf accuracy    <       0.00001992 Ry

     iteration #  6     ecut=    25.00 Ry     beta=0.30
     Davidson diagonalization with overlap
     ethr =  3.32E-07,  avg # of iterations =  4.5

     negative rho (up, down):  0.569E-03 0.000E+00

     total cpu time spent up to now is        4.2 secs

     total energy              =      -6.21454371 Ry
     Harris-Foulkes estimate   =      -6.21454046 Ry
     estimated scf accuracy    <       0.00001276 Ry

     iteration #  7     ecut=    25.00 Ry     beta=0.30
     Davidson diagonalization with overlap
     ethr =  2.13E-07,  avg # of iterations =  2.5

     negative rho (up, down):  0.336E-03 0.000E+00

     total cpu time spent up to now is        4.7 secs

     total energy              =      -6.21454364 Ry
     Harris-Foulkes estimate   =      -6.21454422 Ry
     estimated scf accuracy    <       0.00000089 Ry

     iteration #  8     ecut=    25.00 Ry     beta=0.30
     Davidson diagonalization with overlap
     ethr =  1.49E-08,  avg # of iterations =  1.0

     negative rho (up, down):  0.234E-03 0.000E+00

     total cpu time spent up to now is        5.1 secs

     total energy              =      -6.21454382 Ry
     Harris-Foulkes estimate   =      -6.21454371 Ry
     estimated scf accuracy    <       0.00000004 Ry

     iteration #  9     ecut=    25.00 Ry     beta=0.30
     Davidson diagonalization with overlap
     ethr =  6.81E-10,  avg # of iterations =  1.0

     negative rho (up, down):  0.169E-03 0.000E+00

     total cpu time spent up to now is        5.7 secs

     total energy              =      -6.21454394 Ry
     Harris-Foulkes estimate   =      -6.21454383 Ry
     estimated scf accuracy    <       0.00000004 Ry

     iteration # 10     ecut=    25.00 Ry     beta=0.30
     Davidson diagonalization with overlap
     ethr =  6.41E-10,  avg # of iterations =  1.0

     negative rho (up, down):  0.128E-03 0.000E+00

     total cpu time spent up to now is        6.3 secs

     total energy              =      -6.21454403 Ry
     Harris-Foulkes estimate   =      -6.21454394 Ry
     estimated scf accuracy    <       0.00000003 Ry

     iteration # 11     ecut=    25.00 Ry     beta=0.30
     Davidson diagonalization with overlap
     ethr =  4.84E-10,  avg # of iterations =  1.0

     negative rho (up, down):  0.708E-04 0.000E+00

     total cpu time spent up to now is        6.7 secs

     End of self-consistent calculation

          k = 0.0000 0.0000 0.1309 ( 16127 PWs)   bands (ev):

    -9.4363  -8.4031  -7.7208  -4.7451  -3.5028  -0.2142  -0.1118

          k = 0.0000 0.0000 0.3928 ( 16146 PWs)   bands (ev):

    -9.2636  -8.9186  -6.8765  -5.8792  -2.2147  -1.0180   0.0717

     the Fermi energy is    -6.3778 ev

!    total energy              =      -6.21454417 Ry
     Harris-Foulkes estimate   =      -6.21454403 Ry
     estimated scf accuracy    <          6.5E-10 Ry

     The total energy is the sum of the following terms:

     one-electron contribution =      -9.68525153 Ry
     hartree contribution      =       4.97287924 Ry
     xc contribution           =      -3.05454090 Ry
     ewald contribution        =       1.55236903 Ry
     smearing contrib. (-TS)   =      -0.00000001 Ry

     convergence has been achieved in  11 iterations

     Writing output data file hydrogen_H6.save
 
     init_run     :      0.94s CPU      0.99s WALL (       1 calls)
     electrons    :      5.42s CPU      5.63s WALL (       1 calls)

     Called by init_run:
     wfcinit      :      0.07s CPU      0.07s WALL (       1 calls)
     potinit      :      0.44s CPU      0.43s WALL (       1 calls)

     Called by electrons:
     c_bands      :      1.92s CPU      1.94s WALL (      11 calls)
     sum_band     :      1.42s CPU      1.48s WALL (      11 calls)
     v_of_rho     :      0.37s CPU      0.38s WALL (      12 calls)
     newd         :      0.43s CPU      0.45s WALL (      12 calls)
     mix_rho      :      0.41s CPU      0.43s WALL (      11 calls)

     Called by c_bands:
     init_us_2    :      0.02s CPU      0.03s WALL (      46 calls)
     cegterg      :      1.81s CPU      1.89s WALL (      22 calls)

     Called by *egterg:
     h_psi        :      1.69s CPU      1.75s WALL (      78 calls)
     s_psi        :      0.02s CPU      0.02s WALL (      78 calls)
     g_psi        :      0.00s CPU      0.02s WALL (      54 calls)
     cdiaghg      :      0.03s CPU      0.02s WALL (      76 calls)

     Called by h_psi:
     add_vuspsi   :      0.01s CPU      0.02s WALL (      78 calls)

     General routines
     calbec       :      0.05s CPU      0.05s WALL (     100 calls)
     fft          :      1.25s CPU      1.27s WALL (     103 calls)
     ffts         :      0.08s CPU      0.08s WALL (      23 calls)
     fftw         :      1.48s CPU      1.59s WALL (     900 calls)
     interpolate  :      0.41s CPU      0.40s WALL (      23 calls)
     davcio       :      0.00s CPU      0.03s WALL (      68 calls)
 
     Parallel routines
     fft_scatter  :      1.11s CPU      1.08s WALL (    1026 calls)
 
     PWSCF        :     6.50s CPU         6.80s WALL

 
   This run was terminated on:  13:17:46  18Apr2014            

=------------------------------------------------------------------------------=
   JOB DONE.
=------------------------------------------------------------------------------=
