
     Program POST-PROC v.2.1.5  starts ...
     Today is 10Oct2005 at 10:19:45 

     Reading file pt_h2_pt.save ... 
     read complete

     Reading file pt_h2_pt.save ... 
     read complete

     nbndx  =    60  nbnd   =    60  natomwfc =    50  npwx   =   22572
     nelec  =   82.00 nkb   =   108  ngl    =   26868
