
     Program POST-PROC v.2.1.4  starts ...
     Today is  9Sep2005 at 15:36:57 

     Reading file pt_h2_pt.save ... 
     read complete

     Reading file pt_h2_pt.save ... 
     read complete

     nbndx  =    60  nbnd   =    60  natomwfc =    50  npwx   =   22572
     nelec  =   82.00 nkb   =   108  ngl    =   26868
