
     Program POST-PROC v.3.1    starts ...
     Today is 11Apr2006 at 16:23:52 

     nbndx  =    16  nbnd   =    16  natomwfc =     8  npwx   =     302
     nelec  =   8.00  nkb   =    36  ngl    =     144
