
     Program POST-PROC v.2.1.3  starts ...
     Today is 26Jul2005 at 13:16: 7 

     Reading file silicon.save ... 
     read complete

     Reading file silicon.save ... 
     read complete

     nbndx  =    16  nbnd   =    16  natomwfc =     8  npwx   =     869
     nelec  =    8.00 nkb   =     8  ngl    =     117
