
     Program POST-PROC v.3.2cvs starts ...
     Today is 14Oct2006 at 14: 5: 6 

     nbndx  =    16  nbnd   =    16  natomwfc =     8  npwx   =     302
     nelec  =   8.00  nkb   =    36  ngl    =     144
