
     Program POST-PROC v.3.2    starts ...
     Today is 12Jun2007 at 11:30: 1 

     nbndx  =     4  nbnd   =     4  natomwfc =     8  npwx   =     869
     nelec  =   8.00  nkb   =     8  ngl    =     117
