
     Program POST-PROC v.2.1.5  starts ...
     Today is 10Oct2005 at  0:41:44 

     Reading file silicon_US.save ... 
     read complete

     Reading file silicon_US.save ... 
     read complete

     nbndx  =    16  nbnd   =    16  natomwfc =     8  npwx   =     303
     nelec  =    8.00 nkb   =    36  ngl    =     144
