
     Program POST-PROC v.3.1    starts ...
     Today is 11Apr2006 at 15: 6:40 

     nbndx  =    16  nbnd   =    16  natomwfc =     8  npwx   =     869
     nelec  =   8.00  nkb   =     8  ngl    =     117
