
     Program POST-PROC v.2.0.4  starts ...
     Today is  5Nov2004 at 17:57:17 

     nbndx  =    16  nbnd   =    12  natomwfc =    16  npwx   =    8539
     nelec  =   16.00 nkb   =     4  ngl    =    2583
 Crystal basis vectors, in unit of alat =    10.3557030000000     
 a(1)  1.000000  0.000000  0.000000
 a(2)  0.000000  2.250000  0.000000
 a(3)  0.000000  0.000000  2.250000
 Atomic positions ( lattice coordinates )
 Specie C   atoms =            4
 tau(1)  0.000000  0.000000  0.000000
 tau(2)  0.222628  0.000000  0.000000
 tau(3)  0.500000  0.000000  0.000000
 tau(4)  0.722628  0.000000  0.000000
 Atomic positions ( From PW )
 tau(1)  0.000000  0.000000  0.000000
 tau(2)  0.222628  0.000000  0.000000
 tau(3)  0.500000  0.000000  0.000000
 tau(4)  0.722628  0.000000  0.000000
 k    18539   54.328715    0.000000    0.000000    0.000000 0
 k    28519   54.328715    0.125000    0.000000    0.000000 0
 k    38491   54.328715    0.250000    0.000000    0.000000 0
 k    48498   54.328715    0.375000    0.000000    0.000000 0
 k    58478   54.328715    0.500000    0.000000    0.000000 0
 k    68498   54.328715    0.625000    0.000000    0.000000 0
 k    78491   54.328715    0.750000    0.000000    0.000000 0
 k    88519   54.328715    0.875000    0.000000    0.000000 0
 Wave function dimensions ( npwx, nbnd, nkstot, nspin) =         8539
          12           8           1
 combining indexes
 Grid  ( nr1, nr2, nr3, ngm_g, npw_g, ikw ) =           30          72
          72       68029       11778           8
 K-points (reciprocal lattice coordinates) 
 ik =   1  0.000000  0.000000  0.000000 0
 ik =   2  0.125000  0.000000  0.000000 0
 ik =   3  0.250000  0.000000  0.000000 0
 ik =   4  0.375000  0.000000  0.000000 0
 ik =   5  0.500000  0.000000  0.000000 0
 ik =   6  0.625000  0.000000  0.000000 0
 ik =   7  0.750000  0.000000  0.000000 0
 ik =   8  0.875000  0.000000  0.000000 0
 K-points in unit of 2PI/alat (cartesian coordinates) 
 ik =   1  0.000000  0.000000  0.000000 0
 ik =   2  0.125000  0.000000  0.000000 0
 ik =   3  0.250000  0.000000  0.000000 0
 ik =   4  0.375000  0.000000  0.000000 0
 ik =   5  0.500000  0.000000  0.000000 0
 ik =   6  0.625000  0.000000  0.000000 0
 ik =   7  0.750000  0.000000  0.000000 0
 ik =   8  0.875000  0.000000  0.000000 0
