
     Program POST-PROC v.2.0.4  starts ...
     Today is 23Nov2004 at 15:52:42 

     nbndx  =    10  nbnd   =    10  natomwfc =     6  npwx   =    4031
     nelec  =   11.00 nkb   =     8  ngl    =    1901
  warning: negative or imaginary core charge    -0.000071    0.000000
 Crystal basis vectors, in unit of alat =    20.0000000000000     
 a(1)  1.000000  0.000000  0.000000
 a(2)  0.000000  1.000000  0.000000
 a(3)  0.000000  0.000000  0.236216
 Atomic positions ( lattice coordinates )
 Specie Au  atoms =            1
 tau(1)  0.000000  0.000000  0.200000
 Atomic positions ( From PW )
 tau(1)  0.000000  0.000000  0.047243
 k    14031  253.302959    0.000000    0.000000    0.000000 0
 k    23968  253.302959    0.000000    0.000000    1.058353 0
 k    33976  253.302959    0.000000    0.000000    2.116707 0
 k    43968  253.302959    0.000000    0.000000    3.175060 0
 Wave function dimensions ( npwx, nbnd, nkstot, nspin) =         4031
          10           4           1
 combining indexes
 Grid  ( nr1, nr2, nr3, ngm_g, npw_g, ikw ) =           64          64
          16       32027        6515           4
 K-points (reciprocal lattice coordinates) 
 ik =   1  0.000000  0.000000  0.000000 0
 ik =   2  0.000000  0.000000  1.058353 0
 ik =   3  0.000000  0.000000  2.116707 0
 ik =   4  0.000000  0.000000  3.175060 0
 K-points in unit of 2PI/alat (cartesian coordinates) 
 ik =   1  0.000000  0.000000  0.000000 0
 ik =   2  0.000000  0.000000  0.250000 0
 ik =   3  0.000000  0.000000  0.500000 0
 ik =   4  0.000000  0.000000  0.750000 0
